 DBCSR| CPU Multiplication driver                                           XSMM (U)
 DBCSR| Multrec recursion limit                                              512 (U)
 DBCSR| Multiplication stack size                                           1000 (D)
 DBCSR| Maximum elements for images                                    UNLIMITED (U)
 DBCSR| Multiplicative factor virtual images                                   1 (U)
 DBCSR| Use multiplication densification                                       T (D)
 DBCSR| Multiplication size stacks                                             3 (U)
 DBCSR| Use memory pool for CPU allocation                                     F (U)
 DBCSR| Number of 3D layers                                               SINGLE (U)
 DBCSR| Use MPI memory allocation                                              F (U)
 DBCSR| Use RMA algorithm                                                      F (U)
 DBCSR| Use Communication thread                                               T (U)
 DBCSR| Communication thread load                                             75 (D)
 DBCSR| MPI: My process id                                                     0
 DBCSR| MPI: Number of processes                                            2880
 DBCSR| OMP: Current number of threads                                         4
 DBCSR| OMP: Max number of threads                                             4
 DBCSR| Split modifier for TAS multiplication algorithm                  1.0E+00 (U)


  **** **** ******  **  PROGRAM STARTED AT               2023-05-28 20:27:50.897
 ***** ** ***  *** **   PROGRAM STARTED ON                              n2cn0171
 **    ****   ******    PROGRAM STARTED BY                              eprop2d1
 ***** **    ** ** **   PROGRAM PROCESS ID                               3100207
  **** **  *******  **  PROGRAM STARTED IN /scratch/hpc-prf-eprop2d/eprop2d1_Jan
                                           /02_MoS2_MoSe2_WS2_WSe2/1_MoS2/10x10_
                                           PBE/03_reg_RI_1e-2_TZV2P_gap_biggest_
                                           RI

 CP2K| version string:                 CP2K version 2023.1 (Development Version)
 CP2K| source code revision number:                                  git:a5f008f
 CP2K| cp2kflags: omp libint fftw3 libxc elpa parallel scalapack cosma xsmm plum
 CP2K|            ed2 spglib sirius libvori libbqb libvdwxc
 CP2K| is freely available from                            https://www.cp2k.org/
 CP2K| Program compiled at                         Tue Apr 11 10:47:55 CEST 2023
 CP2K| Program compiled on                                              n2login5
 CP2K| Program compiled for                                                local
 CP2K| Data directory path    /opt/software/pc2/EB-SW/software/CP2K/2023.1-foss-
 CP2K| Input file name                                                    GW.inp

 GLOBAL| Force Environment number                                              1
 GLOBAL| Basis set file name                                        BASIS_MOLOPT
 GLOBAL| Potential file name                                      GTH_POTENTIALS
 GLOBAL| MM Potential file name                                     MM_POTENTIAL
 GLOBAL| Coordinate file name                                      __STD_INPUT__
 GLOBAL| Method name                                                        CP2K
 GLOBAL| Project name                                                       MoS2
 GLOBAL| Run type                                                         ENERGY
 GLOBAL| FFT library                                                       FFTW3
 GLOBAL| Diagonalization library                                            ELPA
 GLOBAL| DGEMM library                                                      BLAS
 GLOBAL| Minimum number of eigenvectors for ELPA usage                        16
 GLOBAL| Orthonormality check for eigenvectors                          DISABLED
 GLOBAL| Matrix multiplication library                                     COSMA
 GLOBAL| All-to-all communication in single precision                          F
 GLOBAL| FFTs using library dependent lengths                                  F
 GLOBAL| Grid backend                                                       AUTO
 GLOBAL| Global print level                                               MEDIUM
 GLOBAL| MPI I/O enabled                                                       T
 GLOBAL| Total number of message passing processes                          2880
 GLOBAL| Number of threads for this process                                    4
 GLOBAL| This output is from process                                           0
 GLOBAL| Stack size for threads created by OpenMP (OMP_STACKSIZE)        default
 GLOBAL| CPU model name                          AMD EPYC 7763 64-Core Processor
 GLOBAL| CPUID                                                              1002
 GLOBAL| Compiled for CPUID                                                    0

 *** HINT in environment.F:882 :: The compiler target flags (generic) used ***
 *** to build this binary cannot exploit all extensions of this CPU model  ***
 *** (x86_avx2). Consider compiler target flags as part of FCFLAGS and     ***
 *** CFLAGS (ARCH file).                                                   ***


 MEMORY| system memory details [Kb]
 MEMORY|                        rank 0           min           max       average
 MEMORY| MemTotal            263914148     263914148     263914156     263914150
 MEMORY| MemFree             243077724     220833400     252401060     244890192
 MEMORY| Buffers                292608         33432        362284        246860
 MEMORY| Cached                7144776       3252440      22785356       6214115
 MEMORY| Slab                  6321144       1559036      13260704       5361496
 MEMORY| SReclaimable           284464        172696        640284        281934
 MEMORY| MemLikelyFree       250799572     243046616     255865340     251633102


 *** Fundamental physical constants (SI units) ***

 *** Literature: B. J. Mohr and B. N. Taylor,
 ***             CODATA recommended values of the fundamental physical
 ***             constants: 2006, Web Version 5.1
 ***             http://physics.nist.gov/constants

 Speed of light in vacuum [m/s]                             2.99792458000000E+08
 Magnetic constant or permeability of vacuum [N/A**2]       1.25663706143592E-06
 Electric constant or permittivity of vacuum [F/m]          8.85418781762039E-12
 Planck constant (h) [J*s]                                  6.62606896000000E-34
 Planck constant (h-bar) [J*s]                              1.05457162825177E-34
 Elementary charge [C]                                      1.60217648700000E-19
 Electron mass [kg]                                         9.10938215000000E-31
 Electron g factor [ ]                                     -2.00231930436220E+00
 Proton mass [kg]                                           1.67262163700000E-27
 Fine-structure constant                                    7.29735253760000E-03
 Rydberg constant [1/m]                                     1.09737315685270E+07
 Avogadro constant [1/mol]                                  6.02214179000000E+23
 Boltzmann constant [J/K]                                   1.38065040000000E-23
 Atomic mass unit [kg]                                      1.66053878200000E-27
 Bohr radius [m]                                            5.29177208590000E-11

 *** Conversion factors ***

 [u] -> [a.u.]                                              1.82288848426455E+03
 [Angstrom] -> [Bohr] = [a.u.]                              1.88972613288564E+00
 [a.u.] = [Bohr] -> [Angstrom]                              5.29177208590000E-01
 [a.u.] -> [s]                                              2.41888432650478E-17
 [a.u.] -> [fs]                                             2.41888432650478E-02
 [a.u.] -> [J]                                              4.35974393937059E-18
 [a.u.] -> [N]                                              8.23872205491840E-08
 [a.u.] -> [K]                                              3.15774647902944E+05
 [a.u.] -> [kJ/mol]                                         2.62549961709828E+03
 [a.u.] -> [kcal/mol]                                       6.27509468713739E+02
 [a.u.] -> [Pa]                                             2.94210107994716E+13
 [a.u.] -> [bar]                                            2.94210107994716E+08
 [a.u.] -> [atm]                                            2.90362800883016E+08
 [a.u.] -> [eV]                                             2.72113838565563E+01
 [a.u.] -> [Hz]                                             6.57968392072181E+15
 [a.u.] -> [1/cm] (wave numbers)                            2.19474631370540E+05
 [a.u./Bohr**2] -> [1/cm]                                   5.14048714338585E+03
 

 CELL_TOP| Volume [angstrom^3]:                                     12889.705604
 CELL_TOP| Vector a [angstrom    31.500     0.000     0.000   |a| =    31.500000
 CELL_TOP| Vector b [angstrom   -15.750    27.280     0.000   |b| =    31.500000
 CELL_TOP| Vector c [angstrom     0.000     0.000    15.000   |c| =    15.000000
 CELL_TOP| Angle (b,c), alpha [degree]:                                90.000000
 CELL_TOP| Angle (a,c), beta  [degree]:                                90.000000
 CELL_TOP| Angle (a,b), gamma [degree]:                               120.000000
 CELL_TOP| Numerically orthorhombic:                                          NO
 CELL_TOP| Periodicity                                                        XY

 CELL_UC| Volume [angstrom^3]:                                        128.897056
 CELL_UC| Vector a [angstrom]     3.150     0.000     0.000   |a| =     3.150000
 CELL_UC| Vector b [angstrom]    -1.575     2.728     0.000   |b| =     3.150000
 CELL_UC| Vector c [angstrom]     0.000     0.000    15.000   |c| =    15.000000
 CELL_UC| Angle (b,c), alpha [degree]:                                 90.000000
 CELL_UC| Angle (a,c), beta  [degree]:                                 90.000000
 CELL_UC| Angle (a,b), gamma [degree]:                                120.000000
 CELL_UC| Numerically orthorhombic:                                           NO
 CELL_UC| Periodicity                                                         XY

 GENERATE|  Preliminary Number of Bonds generated:                             0
 GENERATE|  Achieved consistency in connectivity generation.

 CELL| Volume [angstrom^3]:                                         12889.705604
 CELL| Vector a [angstrom]:      31.500     0.000     0.000   |a| =    31.500000
 CELL| Vector b [angstrom]:     -15.750    27.280     0.000   |b| =    31.500000
 CELL| Vector c [angstrom]:       0.000     0.000    15.000   |c| =    15.000000
 CELL| Angle (b,c), alpha [degree]:                                    90.000000
 CELL| Angle (a,c), beta  [degree]:                                    90.000000
 CELL| Angle (a,b), gamma [degree]:                                   120.000000
 CELL| Numerically orthorhombic:                                              NO
 CELL| Periodicity                                                            XY

 CELL_REF| Volume [angstrom^3]:                                     12889.705604
 CELL_REF| Vector a [angstrom    31.500     0.000     0.000   |a| =    31.500000
 CELL_REF| Vector b [angstrom   -15.750    27.280     0.000   |b| =    31.500000
 CELL_REF| Vector c [angstrom     0.000     0.000    15.000   |c| =    15.000000
 CELL_REF| Angle (b,c), alpha [degree]:                                90.000000
 CELL_REF| Angle (a,c), beta  [degree]:                                90.000000
 CELL_REF| Angle (a,b), gamma [degree]:                               120.000000
 CELL_REF| Numerically orthorhombic:                                          NO
 CELL_REF| Periodicity                                                        XY

 *******************************************************************************
 *******************************************************************************
 **                                                                           **
 **     #####                         ##              ##                      **
 **    ##   ##            ##          ##              ##                      **
 **   ##     ##                       ##            ######                    **
 **   ##     ##  ##   ##  ##   #####  ##  ##   ####   ##    #####    #####    **
 **   ##     ##  ##   ##  ##  ##      ## ##   ##      ##   ##   ##  ##   ##   **
 **   ##  ## ##  ##   ##  ##  ##      ####     ###    ##   ######   ######    **
 **    ##  ###   ##   ##  ##  ##      ## ##      ##   ##   ##       ##        **
 **     #######   #####   ##   #####  ##  ##  ####    ##    #####   ##        **
 **           ##                                                    ##        **
 **                                                                           **
 **                                                ... make the atoms dance   **
 **                                                                           **
 **            Copyright (C) by CP2K developers group (2000-2023)             **
 **                      J. Chem. Phys. 152, 194103 (2020)                    **
 **                                                                           **
 *******************************************************************************

 DFT| Spin restricted Kohn-Sham (RKS) calculation                            RKS
 DFT| Multiplicity                                                             1
 DFT| Number of spin states                                                    1
 DFT| Charge                                                                   0
 DFT| Self-interaction correction (SIC)                                       NO
 DFT| Cutoffs: density                                              1.000000E-10
 DFT|          gradient                                             1.000000E-10
 DFT|          tau                                                  1.000000E-10
 DFT|          cutoff_smoothing_range                               0.000000E+00
 DFT| XC density smoothing                                                  NONE
 DFT| XC derivatives                                                          PW

 FUNCTIONAL| PADE:
 FUNCTIONAL| S. Goedecker, M. Teter and J. Hutter, Phys. Rev. B 54, 1703 (1996) 


 QS| Method:                                                                 GPW
 QS| Density plane wave grid type                        NON-SPHERICAL FULLSPACE
 QS| Number of grid levels:                                                    4
 QS| Density cutoff [a.u.]:                                                250.0
 QS| Multi grid cutoff [a.u.]: 1) grid level                               250.0
 QS|                           2) grid level                                83.3
 QS|                           3) grid level                                27.8
 QS|                           4) grid level                                 9.3
 QS| Grid level progression factor:                                          3.0
 QS| Relative density cutoff [a.u.]:                                        50.0
 QS| Interaction thresholds: eps_pgf_orb:                                1.0E-40
 QS|                         eps_filter_matrix:                          0.0E+00
 QS|                         eps_core_charge:                            1.0E-42
 QS|                         eps_rho_gspace:                             1.0E-40
 QS|                         eps_rho_rspace:                             1.0E-40
 QS|                         eps_gvg_rspace:                             1.0E-20
 QS|                         eps_ppl:                                    1.0E-02
 QS|                         eps_ppnl:                                   1.0E-22


 ATOMIC KIND INFORMATION

  1. Atomic kind: Mo                                    Number of atoms:     100

     Orbital Basis Set                                       TZV2P-MOLOPT-SR-GTH

       Number of orbital shell sets:                                           1
       Number of orbital shells:                                              12
       Number of primitive Cartesian functions:                                7
       Number of Cartesian basis functions:                                   51
       Number of spherical basis functions:                                   42
       Norm type:                                                              2

       Normalised Cartesian orbitals:

                        Set   Shell   Orbital            Exponent    Coefficient

                          1       1    2s                2.540273      -1.321231
                                                         1.999996       0.386074
                                                         0.894040       0.632184
                                                         0.439257       0.196926
                                                         0.189498       0.017023
                                                         0.083802      -0.027705
                                                         0.052949      -0.026613

                          1       2    3s                2.540273       0.226721
                                                         1.999996      -0.073158
                                                         0.894040      -0.053559
                                                         0.439257       0.091291
                                                         0.189498      -0.109922
                                                         0.083802      -0.065996
                                                         0.052949      -0.004390

                          1       3    4s                2.540273       0.151037
                                                         1.999996      -0.934259
                                                         0.894040       0.277268
                                                         0.439257      -0.018911
                                                         0.189498       0.203898
                                                         0.083802      -0.107599
                                                         0.052949       0.083646

                          1       4    5s                2.540273      -0.119990
                                                         1.999996       0.896807
                                                         0.894040       0.455473
                                                         0.439257      -0.443578
                                                         0.189498      -0.167165
                                                         0.083802      -0.001095
                                                         0.052949       0.077321

                          1       5    3px               2.540273       2.622682
                                                         1.999996      -2.341890
                                                         0.894040      -0.583031
                                                         0.439257      -0.176984
                                                         0.189498      -0.015780
                                                         0.083802      -0.000908
                                                         0.052949      -0.000447
                          1       5    3py               2.540273       2.622682
                                                         1.999996      -2.341890
                                                         0.894040      -0.583031
                                                         0.439257      -0.176984
                                                         0.189498      -0.015780
                                                         0.083802      -0.000908
                                                         0.052949      -0.000447
                          1       5    3pz               2.540273       2.622682
                                                         1.999996      -2.341890
                                                         0.894040      -0.583031
                                                         0.439257      -0.176984
                                                         0.189498      -0.015780
                                                         0.083802      -0.000908
                                                         0.052949      -0.000447

                          1       6    4px               2.540273      -0.260015
                                                         1.999996       0.590944
                                                         0.894040      -0.043681
                                                         0.439257      -0.117520
                                                         0.189498      -0.105390
                                                         0.083802      -0.009391
                                                         0.052949      -0.005803
                          1       6    4py               2.540273      -0.260015
                                                         1.999996       0.590944
                                                         0.894040      -0.043681
                                                         0.439257      -0.117520
                                                         0.189498      -0.105390
                                                         0.083802      -0.009391
                                                         0.052949      -0.005803
                          1       6    4pz               2.540273      -0.260015
                                                         1.999996       0.590944
                                                         0.894040      -0.043681
                                                         0.439257      -0.117520
                                                         0.189498      -0.105390
                                                         0.083802      -0.009391
                                                         0.052949      -0.005803

                          1       7    5px               2.540273      -0.353254
                                                         1.999996       0.905805
                                                         0.894040       0.246303
                                                         0.439257      -0.518036
                                                         0.189498       0.039707
                                                         0.083802      -0.012470
                                                         0.052949       0.039500
                          1       7    5py               2.540273      -0.353254
                                                         1.999996       0.905805
                                                         0.894040       0.246303
                                                         0.439257      -0.518036
                                                         0.189498       0.039707
                                                         0.083802      -0.012470
                                                         0.052949       0.039500
                          1       7    5pz               2.540273      -0.353254
                                                         1.999996       0.905805
                                                         0.894040       0.246303
                                                         0.439257      -0.518036
                                                         0.189498       0.039707
                                                         0.083802      -0.012470
                                                         0.052949       0.039500

                          1       8    4dx2              2.540273      -1.497042
                                                         1.999996       1.923448
                                                         0.894040       0.383738
                                                         0.439257       0.135280
                                                         0.189498       0.028294
                                                         0.083802       0.001439
                                                         0.052949       0.000783
                          1       8    4dxy              2.540273      -2.592953
                                                         1.999996       3.331510
                                                         0.894040       0.664653
                                                         0.439257       0.234311
                                                         0.189498       0.049007
                                                         0.083802       0.002493
                                                         0.052949       0.001357
                          1       8    4dxz              2.540273      -2.592953
                                                         1.999996       3.331510
                                                         0.894040       0.664653
                                                         0.439257       0.234311
                                                         0.189498       0.049007
                                                         0.083802       0.002493
                                                         0.052949       0.001357
                          1       8    4dy2              2.540273      -1.497042
                                                         1.999996       1.923448
                                                         0.894040       0.383738
                                                         0.439257       0.135280
                                                         0.189498       0.028294
                                                         0.083802       0.001439
                                                         0.052949       0.000783
                          1       8    4dyz              2.540273      -2.592953
                                                         1.999996       3.331510
                                                         0.894040       0.664653
                                                         0.439257       0.234311
                                                         0.189498       0.049007
                                                         0.083802       0.002493
                                                         0.052949       0.001357
                          1       8    4dz2              2.540273      -1.497042
                                                         1.999996       1.923448
                                                         0.894040       0.383738
                                                         0.439257       0.135280
                                                         0.189498       0.028294
                                                         0.083802       0.001439
                                                         0.052949       0.000783

                          1       9    5dx2              2.540273       0.864975
                                                         1.999996      -1.148376
                                                         0.894040      -0.357133
                                                         0.439257      -0.080387
                                                         0.189498       0.054574
                                                         0.083802       0.005397
                                                         0.052949       0.003242
                          1       9    5dxy              2.540273       1.498181
                                                         1.999996      -1.989045
                                                         0.894040      -0.618573
                                                         0.439257      -0.139234
                                                         0.189498       0.094525
                                                         0.083802       0.009348
                                                         0.052949       0.005615
                          1       9    5dxz              2.540273       1.498181
                                                         1.999996      -1.989045
                                                         0.894040      -0.618573
                                                         0.439257      -0.139234
                                                         0.189498       0.094525
                                                         0.083802       0.009348
                                                         0.052949       0.005615
                          1       9    5dy2              2.540273       0.864975
                                                         1.999996      -1.148376
                                                         0.894040      -0.357133
                                                         0.439257      -0.080387
                                                         0.189498       0.054574
                                                         0.083802       0.005397
                                                         0.052949       0.003242
                          1       9    5dyz              2.540273       1.498181
                                                         1.999996      -1.989045
                                                         0.894040      -0.618573
                                                         0.439257      -0.139234
                                                         0.189498       0.094525
                                                         0.083802       0.009348
                                                         0.052949       0.005615
                          1       9    5dz2              2.540273       0.864975
                                                         1.999996      -1.148376
                                                         0.894040      -0.357133
                                                         0.439257      -0.080387
                                                         0.189498       0.054574
                                                         0.083802       0.005397
                                                         0.052949       0.003242

                          1      10    6dx2              2.540273       1.432307
                                                         1.999996      -1.051013
                                                         0.894040       1.746108
                                                         0.439257      -0.345728
                                                         0.189498       0.011925
                                                         0.083802      -0.031871
                                                         0.052949       0.011210
                          1      10    6dxy              2.540273       2.480828
                                                         1.999996      -1.820408
                                                         0.894040       3.024348
                                                         0.439257      -0.598818
                                                         0.189498       0.020654
                                                         0.083802      -0.055202
                                                         0.052949       0.019417
                          1      10    6dxz              2.540273       2.480828
                                                         1.999996      -1.820408
                                                         0.894040       3.024348
                                                         0.439257      -0.598818
                                                         0.189498       0.020654
                                                         0.083802      -0.055202
                                                         0.052949       0.019417
                          1      10    6dy2              2.540273       1.432307
                                                         1.999996      -1.051013
                                                         0.894040       1.746108
                                                         0.439257      -0.345728
                                                         0.189498       0.011925
                                                         0.083802      -0.031871
                                                         0.052949       0.011210
                          1      10    6dyz              2.540273       2.480828
                                                         1.999996      -1.820408
                                                         0.894040       3.024348
                                                         0.439257      -0.598818
                                                         0.189498       0.020654
                                                         0.083802      -0.055202
                                                         0.052949       0.019417
                          1      10    6dz2              2.540273       1.432307
                                                         1.999996      -1.051013
                                                         0.894040       1.746108
                                                         0.439257      -0.345728
                                                         0.189498       0.011925
                                                         0.083802      -0.031871
                                                         0.052949       0.011210

                          1      11    5fx3              2.540273       0.878054
                                                         1.999996      -0.786839
                                                         0.894040      -0.419447
                                                         0.439257      -0.111386
                                                         0.189498      -0.007752
                                                         0.083802      -0.000849
                                                         0.052949       0.000161
                          1      11    5fx2y             2.540273       1.963389
                                                         1.999996      -1.759425
                                                         0.894040      -0.937912
                                                         0.439257      -0.249068
                                                         0.189498      -0.017335
                                                         0.083802      -0.001899
                                                         0.052949       0.000360
                          1      11    5fx2z             2.540273       1.963389
                                                         1.999996      -1.759425
                                                         0.894040      -0.937912
                                                         0.439257      -0.249068
                                                         0.189498      -0.017335
                                                         0.083802      -0.001899
                                                         0.052949       0.000360
                          1      11    5fxy2             2.540273       1.963389
                                                         1.999996      -1.759425
                                                         0.894040      -0.937912
                                                         0.439257      -0.249068
                                                         0.189498      -0.017335
                                                         0.083802      -0.001899
                                                         0.052949       0.000360
                          1      11    5fxyz             2.540273       3.400689
                                                         1.999996      -3.047414
                                                         0.894040      -1.624512
                                                         0.439257      -0.431398
                                                         0.189498      -0.030025
                                                         0.083802      -0.003290
                                                         0.052949       0.000623
                          1      11    5fxz2             2.540273       1.963389
                                                         1.999996      -1.759425
                                                         0.894040      -0.937912
                                                         0.439257      -0.249068
                                                         0.189498      -0.017335
                                                         0.083802      -0.001899
                                                         0.052949       0.000360
                          1      11    5fy3              2.540273       0.878054
                                                         1.999996      -0.786839
                                                         0.894040      -0.419447
                                                         0.439257      -0.111386
                                                         0.189498      -0.007752
                                                         0.083802      -0.000849
                                                         0.052949       0.000161
                          1      11    5fy2z             2.540273       1.963389
                                                         1.999996      -1.759425
                                                         0.894040      -0.937912
                                                         0.439257      -0.249068
                                                         0.189498      -0.017335
                                                         0.083802      -0.001899
                                                         0.052949       0.000360
                          1      11    5fyz2             2.540273       1.963389
                                                         1.999996      -1.759425
                                                         0.894040      -0.937912
                                                         0.439257      -0.249068
                                                         0.189498      -0.017335
                                                         0.083802      -0.001899
                                                         0.052949       0.000360
                          1      11    5fz3              2.540273       0.878054
                                                         1.999996      -0.786839
                                                         0.894040      -0.419447
                                                         0.439257      -0.111386
                                                         0.189498      -0.007752
                                                         0.083802      -0.000849
                                                         0.052949       0.000161

                          1      12    6fx3              2.540273       0.396157
                                                         1.999996      -0.370026
                                                         0.894040       0.516215
                                                         0.439257      -0.036427
                                                         0.189498      -0.015509
                                                         0.083802      -0.000859
                                                         0.052949      -0.001005
                          1      12    6fx2y             2.540273       0.885834
                                                         1.999996      -0.827403
                                                         0.894040       1.154292
                                                         0.439257      -0.081452
                                                         0.189498      -0.034678
                                                         0.083802      -0.001921
                                                         0.052949      -0.002247
                          1      12    6fx2z             2.540273       0.885834
                                                         1.999996      -0.827403
                                                         0.894040       1.154292
                                                         0.439257      -0.081452
                                                         0.189498      -0.034678
                                                         0.083802      -0.001921
                                                         0.052949      -0.002247
                          1      12    6fxy2             2.540273       0.885834
                                                         1.999996      -0.827403
                                                         0.894040       1.154292
                                                         0.439257      -0.081452
                                                         0.189498      -0.034678
                                                         0.083802      -0.001921
                                                         0.052949      -0.002247
                          1      12    6fxyz             2.540273       1.534310
                                                         1.999996      -1.433104
                                                         0.894040       1.999293
                                                         0.439257      -0.141080
                                                         0.189498      -0.060064
                                                         0.083802      -0.003326
                                                         0.052949      -0.003891
                          1      12    6fxz2             2.540273       0.885834
                                                         1.999996      -0.827403
                                                         0.894040       1.154292
                                                         0.439257      -0.081452
                                                         0.189498      -0.034678
                                                         0.083802      -0.001921
                                                         0.052949      -0.002247
                          1      12    6fy3              2.540273       0.396157
                                                         1.999996      -0.370026
                                                         0.894040       0.516215
                                                         0.439257      -0.036427
                                                         0.189498      -0.015509
                                                         0.083802      -0.000859
                                                         0.052949      -0.001005
                          1      12    6fy2z             2.540273       0.885834
                                                         1.999996      -0.827403
                                                         0.894040       1.154292
                                                         0.439257      -0.081452
                                                         0.189498      -0.034678
                                                         0.083802      -0.001921
                                                         0.052949      -0.002247
                          1      12    6fyz2             2.540273       0.885834
                                                         1.999996      -0.827403
                                                         0.894040       1.154292
                                                         0.439257      -0.081452
                                                         0.189498      -0.034678
                                                         0.083802      -0.001921
                                                         0.052949      -0.002247
                          1      12    6fz3              2.540273       0.396157
                                                         1.999996      -0.370026
                                                         0.894040       0.516215
                                                         0.439257      -0.036427
                                                         0.189498      -0.015509
                                                         0.083802      -0.000859
                                                         0.052949      -0.001005

     RI Auxiliary Basis Set                                            RI-conv-2

       Number of orbital shell sets:                                          26
       Number of orbital shells:                                              26
       Number of primitive Cartesian functions:                               26
       Number of Cartesian basis functions:                                  217
       Number of spherical basis functions:                                  144
       Norm type:                                                              2

       Normalised Cartesian orbitals:

                        Set   Shell   Orbital            Exponent    Coefficient

                          1       1    1s                0.215886       0.225724

                          2       1    1px               0.241546       0.241374
                          2       1    1py               0.241546       0.241374
                          2       1    1pz               0.241546       0.241374

                          3       1    1fx3              0.262719       0.072746
                          3       1    1fx2y             0.262719       0.162665
                          3       1    1fx2z             0.262719       0.162665
                          3       1    1fxy2             0.262719       0.162665
                          3       1    1fxyz             0.262719       0.281745
                          3       1    1fxz2             0.262719       0.162665
                          3       1    1fy3              0.262719       0.072746
                          3       1    1fy2z             0.262719       0.162665
                          3       1    1fyz2             0.262719       0.162665
                          3       1    1fz3              0.262719       0.072746

                          4       1    1gx4              0.262828       0.028218
                          4       1    1gx3y             0.262828       0.074659
                          4       1    1gx3z             0.262828       0.074659
                          4       1    1gx2y2            0.262828       0.096384
                          4       1    1gx2yz            0.262828       0.166942
                          4       1    1gx2z2            0.262828       0.096384
                          4       1    1gxy3             0.262828       0.074659
                          4       1    1gxy2z            0.262828       0.166942
                          4       1    1gxyz2            0.262828       0.166942
                          4       1    1gxz3             0.262828       0.074659
                          4       1    1gy4              0.262828       0.028218
                          4       1    1gy3z             0.262828       0.074659
                          4       1    1gy2z2            0.262828       0.096384
                          4       1    1gyz3             0.262828       0.074659
                          4       1    1gz4              0.262828       0.028218

                          5       1    1dx2              0.345202       0.255881
                          5       1    1dxy              0.345202       0.443199
                          5       1    1dxz              0.345202       0.443199
                          5       1    1dy2              0.345202       0.255881
                          5       1    1dyz              0.345202       0.443199
                          5       1    1dz2              0.345202       0.255881

                          6       1    1px               0.419826       0.481700
                          6       1    1py               0.419826       0.481700
                          6       1    1pz               0.419826       0.481700

                          7       1    1fx3              0.465046       0.262918
                          7       1    1fx2y             0.465046       0.587902
                          7       1    1fx2z             0.465046       0.587902
                          7       1    1fxy2             0.465046       0.587902
                          7       1    1fxyz             0.465046       1.018277
                          7       1    1fxz2             0.465046       0.587902
                          7       1    1fy3              0.465046       0.262918
                          7       1    1fy2z             0.465046       0.587902
                          7       1    1fyz2             0.465046       0.587902
                          7       1    1fz3              0.465046       0.262918

                          8       1    1gx4              0.490105       0.156578
                          8       1    1gx3y             0.490105       0.414266
                          8       1    1gx3z             0.490105       0.414266
                          8       1    1gx2y2            0.490105       0.534815
                          8       1    1gx2yz            0.490105       0.926328
                          8       1    1gx2z2            0.490105       0.534815
                          8       1    1gxy3             0.490105       0.414266
                          8       1    1gxy2z            0.490105       0.926328
                          8       1    1gxyz2            0.490105       0.926328
                          8       1    1gxz3             0.490105       0.414266
                          8       1    1gy4              0.490105       0.156578
                          8       1    1gy3z             0.490105       0.414266
                          8       1    1gy2z2            0.490105       0.534815
                          8       1    1gyz3             0.490105       0.414266
                          8       1    1gz4              0.490105       0.156578

                          9       1    1hx5              0.578071       0.124963
                          9       1    1hx4y             0.578071       0.374890
                          9       1    1hx4z             0.578071       0.374890
                          9       1    1hx3y2            0.578071       0.572654
                          9       1    1hx3yz            0.578071       0.991867
                          9       1    1hx3z2            0.578071       0.572654
                          9       1    1hx2y3            0.578071       0.572654
                          9       1    1hx2y2z           0.578071       1.280494
                          9       1    1hx2yz2           0.578071       1.280494
                          9       1    1hx2z3            0.578071       0.572654
                          9       1    1hxy4             0.578071       0.374890
                          9       1    1hxy3z            0.578071       0.991867
                          9       1    1hxy2z2           0.578071       1.280494
                          9       1    1hxyz3            0.578071       0.991867
                          9       1    1hxz4             0.578071       0.374890
                          9       1    1hy5              0.578071       0.124963
                          9       1    1hy4z             0.578071       0.374890
                          9       1    1hy3z2            0.578071       0.572654
                          9       1    1hy2z3            0.578071       0.572654
                          9       1    1hyz4             0.578071       0.374890
                          9       1    1hz5              0.578071       0.124963

                         10       1    1s                0.639555       0.509705

                         11       1    1dx2              0.815331       1.151447
                         11       1    1dxy              0.815331       1.994364
                         11       1    1dxz              0.815331       1.994364
                         11       1    1dy2              0.815331       1.151447
                         11       1    1dyz              0.815331       1.994364
                         11       1    1dz2              0.815331       1.151447

                         12       1    1fx3              0.967481       1.366627
                         12       1    1fx2y             0.967481       3.055871
                         12       1    1fx2z             0.967481       3.055871
                         12       1    1fxy2             0.967481       3.055871
                         12       1    1fxyz             0.967481       5.292923
                         12       1    1fxz2             0.967481       3.055871
                         12       1    1fy3              0.967481       1.366627
                         12       1    1fy2z             0.967481       3.055871
                         12       1    1fyz2             0.967481       3.055871
                         12       1    1fz3              0.967481       1.366627

                         13       1    1gx4              1.067170       1.330693
                         13       1    1gx3y             1.067170       3.520683
                         13       1    1gx3z             1.067170       3.520683
                         13       1    1gx2y2            1.067170       4.545182
                         13       1    1gx2yz            1.067170       7.872486
                         13       1    1gx2z2            1.067170       4.545182
                         13       1    1gxy3             1.067170       3.520683
                         13       1    1gxy2z            1.067170       7.872486
                         13       1    1gxyz2            1.067170       7.872486
                         13       1    1gxz3             1.067170       3.520683
                         13       1    1gy4              1.067170       1.330693
                         13       1    1gy3z             1.067170       3.520683
                         13       1    1gy2z2            1.067170       4.545182
                         13       1    1gyz3             1.067170       3.520683
                         13       1    1gz4              1.067170       1.330693

                         14       1    1hx5              1.186650       1.293876
                         14       1    1hx4y             1.186650       3.881629
                         14       1    1hx4z             1.186650       3.881629
                         14       1    1hx3y2            1.186650       5.929286
                         14       1    1hx3yz            1.186650      10.269825
                         14       1    1hx3z2            1.186650       5.929286
                         14       1    1hx2y3            1.186650       5.929286
                         14       1    1hx2y2z           1.186650      13.258287
                         14       1    1hx2yz2           1.186650      13.258287
                         14       1    1hx2z3            1.186650       5.929286
                         14       1    1hxy4             1.186650       3.881629
                         14       1    1hxy3z            1.186650      10.269825
                         14       1    1hxy2z2           1.186650      13.258287
                         14       1    1hxyz3            1.186650      10.269825
                         14       1    1hxz4             1.186650       3.881629
                         14       1    1hy5              1.186650       1.293876
                         14       1    1hy4z             1.186650       3.881629
                         14       1    1hy3z2            1.186650       5.929286
                         14       1    1hy2z3            1.186650       5.929286
                         14       1    1hyz4             1.186650       3.881629
                         14       1    1hz5              1.186650       1.293876

                         15       1    1px               1.260930       1.904600
                         15       1    1py               1.260930       1.904600
                         15       1    1pz               1.260930       1.904600

                         16       1    1s                1.329470       0.882407

                         17       1    1dx2              1.518890       3.420429
                         17       1    1dxy              1.518890       5.924356
                         17       1    1dxz              1.518890       5.924356
                         17       1    1dy2              1.518890       3.420429
                         17       1    1dyz              1.518890       5.924356
                         17       1    1dz2              1.518890       3.420429

                         18       1    1px               1.700750       2.768476
                         18       1    1py               1.700750       2.768476
                         18       1    1pz               1.700750       2.768476

                         19       1    1gx4              2.053300       8.047844
                         19       1    1gx3y             2.053300      21.292594
                         19       1    1gx3z             2.053300      21.292594
                         19       1    1gx2y2            2.053300      27.488620
                         19       1    1gx2yz            2.053300      47.611687
                         19       1    1gx2z2            2.053300      27.488620
                         19       1    1gxy3             2.053300      21.292594
                         19       1    1gxy2z            2.053300      47.611687
                         19       1    1gxyz2            2.053300      47.611687
                         19       1    1gxz3             2.053300      21.292594
                         19       1    1gy4              2.053300       8.047844
                         19       1    1gy3z             2.053300      21.292594
                         19       1    1gy2z2            2.053300      27.488620
                         19       1    1gyz3             2.053300      21.292594
                         19       1    1gz4              2.053300       8.047844

                         20       1    1hx5              2.213580       9.815301
                         20       1    1hx4y             2.213580      29.445904
                         20       1    1hx4z             2.213580      29.445904
                         20       1    1hx3y2            2.213580      44.979361
                         20       1    1hx3yz            2.213580      77.906539
                         20       1    1hx3z2            2.213580      44.979361
                         20       1    1hx2y3            2.213580      44.979361
                         20       1    1hx2y2z           2.213580     100.576910
                         20       1    1hx2yz2           2.213580     100.576910
                         20       1    1hx2z3            2.213580      44.979361
                         20       1    1hxy4             2.213580      29.445904
                         20       1    1hxy3z            2.213580      77.906539
                         20       1    1hxy2z2           2.213580     100.576910
                         20       1    1hxyz3            2.213580      77.906539
                         20       1    1hxz4             2.213580      29.445904
                         20       1    1hy5              2.213580       9.815301
                         20       1    1hy4z             2.213580      29.445904
                         20       1    1hy3z2            2.213580      44.979361
                         20       1    1hy2z3            2.213580      44.979361
                         20       1    1hyz4             2.213580      29.445904
                         20       1    1hz5              2.213580       9.815301

                         21       1    1s                2.238500       1.304301

                         22       1    1fx3              2.295780       9.550972
                         22       1    1fx2y             2.295780      21.356622
                         22       1    1fx2z             2.295780      21.356622
                         22       1    1fxy2             2.295780      21.356622
                         22       1    1fxyz             2.295780      36.990754
                         22       1    1fxz2             2.295780      21.356622
                         22       1    1fy3              2.295780       9.550972
                         22       1    1fy2z             2.295780      21.356622
                         22       1    1fyz2             2.295780      21.356622
                         22       1    1fz3              2.295780       9.550972

                         23       1    1dx2              2.495310       8.154125
                         23       1    1dxy              2.495310      14.123358
                         23       1    1dxz              2.495310      14.123358
                         23       1    1dy2              2.495310       8.154125
                         23       1    1dyz              2.495310      14.123358
                         23       1    1dz2              2.495310       8.154125

                         24       1    1fx3              3.364980      22.576938
                         24       1    1fx2y             3.364980      50.483569
                         24       1    1fx2z             3.364980      50.483569
                         24       1    1fxy2             3.364980      50.483569
                         24       1    1fxyz             3.364980      87.440106
                         24       1    1fxz2             3.364980      50.483569
                         24       1    1fy3              3.364980      22.576938
                         24       1    1fy2z             3.364980      50.483569
                         24       1    1fyz2             3.364980      50.483569
                         24       1    1fz3              3.364980      22.576938

                         25       1    1s                3.482800       1.817007

                         26       1    1px               4.645430       9.721258
                         26       1    1py               4.645430       9.721258
                         26       1    1pz               4.645430       9.721258

       Atomic covalent radius [Angstrom]:                                  1.300

       Atomic van der Waals radius [Angstrom]:                             1.670

     GTH Potential information for                                  GTH-PADE-q14

       Description:                       Goedecker-Teter-Hutter pseudopotential
                                           Goedecker et al., PRB 54, 1703 (1996)
                                          Hartwigsen et al., PRB 58, 3641 (1998)
                                                      Krack, TCA 114, 145 (2005)

       Gaussian exponent of the core charge distribution:               2.704164
       Electronic configuration (s p d ...):                           3   6   5

       Parameters of the local part of the GTH pseudopotential:

                          rloc        C1          C2          C3          C4
                        0.430000   16.237452    1.496536

       Parameters of the non-local part of the GTH pseudopotential:

                   l      r(l)      h(i,j,l)

                   0    0.376255    3.362426    2.048528
                                    2.048528   -5.289276
                   1    0.361734   -0.379571    1.718923
                                    1.718923   -4.067713
                   2    0.525828   -1.543211   -0.473760
                                   -0.473760    1.074388

  2. Atomic kind: S                                     Number of atoms:     200

     Orbital Basis Set                                          TZV2P-MOLOPT-GTH

       Number of orbital shell sets:                                           1
       Number of orbital shells:                                               8
       Number of primitive Cartesian functions:                                6
       Number of Cartesian basis functions:                                   24
       Number of spherical basis functions:                                   22
       Norm type:                                                              2

       Normalised Cartesian orbitals:

                        Set   Shell   Orbital            Exponent    Coefficient

                          1       1    2s                3.817591       0.157264
                                                         2.362752      -0.510082
                                                         0.861004      -0.067545
                                                         0.417525       0.341507
                                                         0.181514       0.065073
                                                         0.070571       0.000166

                          1       2    3s                3.817591      -0.204385
                                                         2.362752       0.558740
                                                         0.861004       0.301625
                                                         0.417525      -0.627222
                                                         0.181514       0.190853
                                                         0.070571       0.080605

                          1       3    4s                3.817591      -1.028748
                                                         2.362752       1.936036
                                                         0.861004       0.140522
                                                         0.417525      -0.138514
                                                         0.181514       0.081374
                                                         0.070571      -0.058475

                          1       4    3px               3.817591      -0.172386
                                                         2.362752      -0.175607
                                                         0.861004       0.224215
                                                         0.417525       0.286358
                                                         0.181514       0.049699
                                                         0.070571       0.001588
                          1       4    3py               3.817591      -0.172386
                                                         2.362752      -0.175607
                                                         0.861004       0.224215
                                                         0.417525       0.286358
                                                         0.181514       0.049699
                                                         0.070571       0.001588
                          1       4    3pz               3.817591      -0.172386
                                                         2.362752      -0.175607
                                                         0.861004       0.224215
                                                         0.417525       0.286358
                                                         0.181514       0.049699
                                                         0.070571       0.001588

                          1       5    4px               3.817591       0.011373
                                                         2.362752       0.235342
                                                         0.861004      -0.175793
                                                         0.417525      -0.223923
                                                         0.181514       0.115877
                                                         0.070571       0.033489
                          1       5    4py               3.817591       0.011373
                                                         2.362752       0.235342
                                                         0.861004      -0.175793
                                                         0.417525      -0.223923
                                                         0.181514       0.115877
                                                         0.070571       0.033489
                          1       5    4pz               3.817591       0.011373
                                                         2.362752       0.235342
                                                         0.861004      -0.175793
                                                         0.417525      -0.223923
                                                         0.181514       0.115877
                                                         0.070571       0.033489

                          1       6    5px               3.817591      -0.999910
                                                         2.362752       1.827963
                                                         0.861004      -1.566915
                                                         0.417525       0.819066
                                                         0.181514       0.069667
                                                         0.070571      -0.035715
                          1       6    5py               3.817591      -0.999910
                                                         2.362752       1.827963
                                                         0.861004      -1.566915
                                                         0.417525       0.819066
                                                         0.181514       0.069667
                                                         0.070571      -0.035715
                          1       6    5pz               3.817591      -0.999910
                                                         2.362752       1.827963
                                                         0.861004      -1.566915
                                                         0.417525       0.819066
                                                         0.181514       0.069667
                                                         0.070571      -0.035715

                          1       7    4dx2              3.817591       0.133631
                                                         2.362752       0.806297
                                                         0.861004       0.453606
                                                         0.417525       0.175089
                                                         0.181514       0.017666
                                                         0.070571      -0.000330
                          1       7    4dxy              3.817591       0.231456
                                                         2.362752       1.396548
                                                         0.861004       0.785669
                                                         0.417525       0.303263
                                                         0.181514       0.030598
                                                         0.070571      -0.000571
                          1       7    4dxz              3.817591       0.231456
                                                         2.362752       1.396548
                                                         0.861004       0.785669
                                                         0.417525       0.303263
                                                         0.181514       0.030598
                                                         0.070571      -0.000571
                          1       7    4dy2              3.817591       0.133631
                                                         2.362752       0.806297
                                                         0.861004       0.453606
                                                         0.417525       0.175089
                                                         0.181514       0.017666
                                                         0.070571      -0.000330
                          1       7    4dyz              3.817591       0.231456
                                                         2.362752       1.396548
                                                         0.861004       0.785669
                                                         0.417525       0.303263
                                                         0.181514       0.030598
                                                         0.070571      -0.000571
                          1       7    4dz2              3.817591       0.133631
                                                         2.362752       0.806297
                                                         0.861004       0.453606
                                                         0.417525       0.175089
                                                         0.181514       0.017666
                                                         0.070571      -0.000330

                          1       8    5dx2              3.817591      -0.996276
                                                         2.362752       0.744777
                                                         0.861004      -0.970401
                                                         0.417525       0.627373
                                                         0.181514      -0.023567
                                                         0.070571      -0.005923
                          1       8    5dxy              3.817591      -1.725601
                                                         2.362752       1.289991
                                                         0.861004      -1.680783
                                                         0.417525       1.086642
                                                         0.181514      -0.040820
                                                         0.070571      -0.010260
                          1       8    5dxz              3.817591      -1.725601
                                                         2.362752       1.289991
                                                         0.861004      -1.680783
                                                         0.417525       1.086642
                                                         0.181514      -0.040820
                                                         0.070571      -0.010260
                          1       8    5dy2              3.817591      -0.996276
                                                         2.362752       0.744777
                                                         0.861004      -0.970401
                                                         0.417525       0.627373
                                                         0.181514      -0.023567
                                                         0.070571      -0.005923
                          1       8    5dyz              3.817591      -1.725601
                                                         2.362752       1.289991
                                                         0.861004      -1.680783
                                                         0.417525       1.086642
                                                         0.181514      -0.040820
                                                         0.070571      -0.010260
                          1       8    5dz2              3.817591      -0.996276
                                                         2.362752       0.744777
                                                         0.861004      -0.970401
                                                         0.417525       0.627373
                                                         0.181514      -0.023567
                                                         0.070571      -0.005923

     RI Auxiliary Basis Set                                            RI-conv-2

       Number of orbital shell sets:                                          20
       Number of orbital shells:                                              20
       Number of primitive Cartesian functions:                               20
       Number of Cartesian basis functions:                                  114
       Number of spherical basis functions:                                   86
       Norm type:                                                              2

       Normalised Cartesian orbitals:

                        Set   Shell   Orbital            Exponent    Coefficient

                          1       1    1s                0.197811       0.211396

                          2       1    1px               0.200000       0.190646
                          2       1    1py               0.200000       0.190646
                          2       1    1pz               0.200000       0.190646

                          3       1    1fx3              0.200000       0.039380
                          3       1    1fx2y             0.200000       0.088056
                          3       1    1fx2z             0.200000       0.088056
                          3       1    1fxy2             0.200000       0.088056
                          3       1    1fxyz             0.200000       0.152517
                          3       1    1fxz2             0.200000       0.088056
                          3       1    1fy3              0.200000       0.039380
                          3       1    1fy2z             0.200000       0.088056
                          3       1    1fyz2             0.200000       0.088056
                          3       1    1fz3              0.200000       0.039380

                          4       1    1dx2              0.242242       0.137672
                          4       1    1dxy              0.242242       0.238455
                          4       1    1dxz              0.242242       0.238455
                          4       1    1dy2              0.242242       0.137672
[...]
 flops inhomo. stacks                974267030400     100.0%      0.0%      0.0%
 flops total                        43.293434E+12       2.3%     97.7%      0.0%
 flops max/rank                     26.113034E+09       3.1%     96.9%      0.0%
 matmuls inhomo. stacks                    313920     100.0%      0.0%      0.0%
 matmuls total                          354409200       0.1%     99.9%      0.0%
 number of processed stacks             137881580       0.2%     99.8%      0.0%
 average stack size                                     1.0       2.6       0.0
 marketing flops                    12.617573E+12
 -------------------------------------------------------------------------------
 # multiplications                             67
 max memory usage/rank             865.075200E+06
 # max total images/rank                        5
 # max 3D layers                                1
 # MPI messages exchanged                45152640
 MPI messages size (bytes):
  total size                         5.616281E+12
  min size                           0.000000E+00
  max size                         364.640000E+03
  average size                     124.384320E+03
 MPI breakdown and total messages size (bytes):
             size <=      128              292560                        0
       128 < size <=     8192                2277                 17633088
      8192 < size <=    32768             8289568             270838415072
     32768 < size <=   131072            13650501             633230996960
    131072 < size <=  4194304            22917734            4712193454080
   4194304 < size <= 16777216                   0                        0
  16777216 < size                               0                        0
 -------------------------------------------------------------------------------

 *** WARNING in dbcsr_mm.F:290 :: Using a non-square number of MPI ranks   ***
 *** might lead to poor performance. Used ranks: 2880 Suggested: 2916 5776 ***

 -------------------------------------------------------------------------------
 -                                                                             -
 -                      DBCSR MESSAGE PASSING PERFORMANCE                      -
 -                                                                             -
 -------------------------------------------------------------------------------
 ROUTINE             CALLS      AVE VOLUME [Bytes]
 MP_Bcast              192                     12.
 MP_Allreduce          865                     16.
 MP_Alltoall        100823               20683937.
 MP_ISend            32160                  70370.
 MP_IRecv            32160                  69965.
 -------------------------------------------------------------------------------

 -------------------------------------------------------------------------------
 -                                                                             -
 -                                DBM STATISTICS                               -
 -                                                                             -
 -------------------------------------------------------------------------------
    M  x    N  x    K                                          COUNT     PERCENT
    ?  x    ?  x    ?                                  1539571865179      34.52%
    ?  x   ??  x  ???                                   169344607026       3.80%
   ??  x   ??  x  ???                                   542768396339      12.17%
    ?  x  ???  x    ?                                   302189610464       6.78%
   ??  x    ?  x  ???                                   169002189891       3.79%
    ?  x  ???  x   ??                                   276339361492       6.20%
   ??  x   ??  x >999                                    35534853387       0.80%
    ?  x >999  x    ?                                    65450012726       1.47%
    ?  x   ??  x >999                                    39096276534       0.88%
   ??  x    ?  x >999                                    38944760781       0.87%
    ?  x    ?  x >999                                    42845117041       0.96%
    ?  x    ?  x  ???                                   184520803457       4.14%
   ??  x  ???  x    ?                                   270386177796       6.06%
    ?  x >999  x   ??                                    59892863668       1.34%
  ???  x   ??  x   ??                                   364542261168       8.17%
   ??  x >999  x    ?                                    58562487740       1.31%
   ??  x  ???  x   ??                                   247251400000       5.54%
   ??  x >999  x   ??                                    53588590000       1.20%
 -------------------------------------------------------------------------------

 -------------------------------------------------------------------------------
 -                                                                             -
 -                                GRID STATISTICS                              -
 -                                                                             -
 -------------------------------------------------------------------------------
 LP    KERNEL             BACKEND                              COUNT     PERCENT
 5     collocate general  REF                               57142800      24.16%
 5     integrate general  REF                               57142800      24.16%
 4     collocate general  REF                               39006000      16.49%
 4     integrate general  REF                               39006000      16.49%
 6     collocate general  REF                               20796600       8.79%
 6     integrate general  REF                               20796600       8.79%
 0     collocate general  REF                                1728000       0.73%
 0     integrate general  REF                                 864000       0.37%
 -------------------------------------------------------------------------------

 MEMORY| Estimated peak process memory [MiB]                                6761

 -------------------------------------------------------------------------------
 ----                             MULTIGRID INFO                            ----
 -------------------------------------------------------------------------------
 count for grid        1:      109247500          cutoff [a.u.]          250.00
 count for grid        2:       48036020          cutoff [a.u.]           83.33
 count for grid        3:       35528340          cutoff [a.u.]           27.78
 count for grid        4:       12720280          cutoff [a.u.]            9.26
 total gridlevel count  :      205532140

 -------------------------------------------------------------------------------
 -                                                                             -
 -                         MESSAGE PASSING PERFORMANCE                         -
 -                                                                             -
 -------------------------------------------------------------------------------

 ROUTINE             CALLS      AVE VOLUME [Bytes]
 MP_Group             5945
 MP_Bcast             8034                 724191.
 MP_Allreduce        12295                  22784.
 MP_Sync              9520
 MP_Alltoall          5015                 357370.
 MP_SendRecv        570042                  11136.
 MP_ISendRecv       570042                  11136.
 MP_Wait            589324
 MP_comm_split        3471
 MP_ISend           918611                 298256.
 MP_IRecv           940817                 303386.
 -------------------------------------------------------------------------------


 -------------------------------------------------------------------------------
 -                                                                             -
 -                           R E F E R E N C E S                               -
 -                                                                             -
 -------------------------------------------------------------------------------
 
 CP2K version 2023.1 (Development Version), the CP2K developers group (2023).
 CP2K is freely available from https://www.cp2k.org/ .

 Kuehne,Thomas D.; Iannuzzi,Marcella; Del Ben,Mauro;
 Rybkin,Vladimir V.; Seewald,Patrick; Stein,Frederick; Laino,Teodoro;
 Khaliullin,Rustam Z.; Schuett,Ole; Schiffmann,Florian; Golze,Dorothea;
 Wilhelm,Jan; Chulkov,Sergey; Bani-Hashemian,Mohammad Hossein;
 Weber,Valery; Borstnik,Urban; Taillefumier,Mathieu;
 Jakobovits,Alice Shoshana; Lazzaro,Alfio; Pabst,Hans; Mueller,Tiziano;
 Schade,Robert; Guidon,Manuel; Andermatt,Samuel; Holmberg,Nico;
 Schenter,Gregory K.; Hehn,Anna; Bussy,Augustin; Belleflamme,Fabian;
 Tabacchi,Gloria; Gloess,Andreas; Lass,Michael; Bethune,Iain;
 Mundy,Christopher J.; Plessl,Christian; Watkins,Matt;
 VandeVondele,Joost; Krack,Matthias; Hutter,Juerg. 
 The Journal of Chemical Physics, 152 (19), (2020). 
 CP2K: An electronic structure and molecular dynamics software package -
 Quickstep: Efficient and accurate electronic structure calculations.
 https://doi.org/10.1063/5.0007045

 Wilhelm, J; Golze, D; Talirz, L; Hutter, J; Pignedoli, CA. 
 JOURNAL OF PHYSICAL CHEMISTRY LETTERS, 9, 306-312 (2018). 
 Toward GW calculations on thousands of atoms.
 https://doi.org/10.1021/acs.jpclett.7b02740

 Wilhelm, J; Hutter, J. PHYSICAL REVIEW B, 95, 235123 (2017). 
 Periodic GW calculations in the Gaussian and plane-waves scheme.
 https://doi.org/10.1103/PhysRevB.95.235123

 Wilhelm, J; Del Ben, M; Hutter, J. 
 JOURNAL OF CHEMICAL THEORY AND COMPUTATION, 12, 3623-3635 (2016). 
 GW in the Gaussian and plane waves scheme with application to linear acenes.
 https://doi.org/10.1021/acs.jctc.6b00380

 Wilhelm, J; Seewald, P; Del Ben, M; Hutter, J. 
 JOURNAL OF CHEMICAL THEORY AND COMPUTATION, 12, 5851-5859 (2016). 
 Large-Scale Cubic-Scaling Random Phase Approximation Correlation.
 https://doi.org/10.1021/acs.jctc.6b00840

 Schuett, Ole; Messmer, Peter; Hutter, Juerg; VandeVondele, Joost. 
 Electronic Structure Calculations on Graphics Processing Units, John
 Wiley & Sons, Ltd, 173-190 (2016). 
 GPU-Accelerated Sparse Matrix-Matrix Multiplication for
 Linear Scaling Density Functional Theory.
 https://doi.org/10.1002/9781118670712.ch8

 Heinecke, A; Henry, G; Hutchinson, M; Pabst, H. 
 Proceedings of Intl. Supercomputing Conference, 981-991 (2016). 
 LIBXSMM: Accelerating Small Matrix Multiplications
 by Runtime Code Generation.
 https://doi.org/10.1109/SC.2016.83

 Del Ben, M; Schuett, O; Wentz, T; Messmer, P; Hutter, J;
 VandeVondele, J. 
 COMPUTER PHYSICS COMMUNICATIONS, 187, 120-129 (2015). 
 Enabling simulation at the fifth rung of DFT: Large scale RPA
 calculations with excellent time to solution.
 https://doi.org/10.1016/j.cpc.2014.10.021

 Borstnik, U; VandeVondele, J; Weber, V; Hutter, J. 
 PARALLEL COMPUTING, 40 (5-6), 47-58 (2014). 
 Sparse matrix multiplication: The distributed block-compressed sparse
 row library.
 https://doi.org/10.1016/j.parco.2014.03.012

 Hutter, J; Iannuzzi, M; Schiffmann, F; VandeVondele, J. 
 WIREs Comput Mol Sci., 4 (1), 15-25 (2014). 
 CP2K: atomistic simulations of condensed matter systems.
 https://doi.org/10.1002/wcms.1159

 Marek, A; Blum, V; Johanni, R; Havu, V; Lang, B; Auckenthaler, T;
 Heinecke, A; Bungartz, H; Lederer, H. 
 Journal of Physics: Condensed Matter, 26 (21), (2014). 
 The ELPA library: scalable parallel eigenvalue solutions for
 electronic structure
 theory and computational science.
 https://doi.org/10.1088/0953-8984/26/21/213201

 Del Ben, M; Hutter, J; VandeVondele, J. 
 JOURNAL OF CHEMICAL THEORY AND COMPUTATION, 9 (6), 2654-2671 (2013). 
 Electron Correlation in the Condensed Phase from a Resolution of
 Identity Approach Based on the Gaussian and Plane Waves Scheme.
 https://doi.org/10.1021/ct4002202

 Del Ben, M; Hutter, J; VandeVondele, J. 
 JOURNAL OF CHEMICAL THEORY AND COMPUTATION, 8 (11), 4177-4188 (2012). 
 Second-Order Moller-Plesset Perturbation Theory in the Condensed Phase:
 An Efficient and Massively Parallel Gaussian and Plane Waves Approach.
 https://doi.org/10.1021/ct300531w

 VandeVondele, J; Hutter, J. 
 JOURNAL OF CHEMICAL PHYSICS, 127 (11), 114105 (2007). 
 Gaussian basis sets for accurate calculations on molecular systems in
 gas and condensed phases.
 https://doi.org/10.1063/1.2770708

 Krack, M. 
 THEORETICAL CHEMISTRY ACCOUNTS, 114 (1-3), 145-152 (2005). 
 Pseudopotentials for H to Kr optimized for gradient-corrected
 exchange-correlation functionals.
 https://doi.org/10.1007/s00214-005-0655-y

 VandeVondele, J; Krack, M; Mohamed, F; Parrinello, M; Chassaing, T;
 Hutter, J. COMPUTER PHYSICS COMMUNICATIONS, 167 (2), 103-128 (2005). 
 QUICKSTEP: Fast and accurate density functional calculations using a
 mixed Gaussian and plane waves approach.
 https://doi.org/10.1016/j.cpc.2004.12.014

 Frigo, M; Johnson, SG. 
 PROCEEDINGS OF THE IEEE, 93 (2), 216-231 (2005). 
 The design and implementation of FFTW3.
 https://doi.org/10.1109/JPROC.2004.840301

 Hartwigsen, C; Goedecker, S; Hutter, J. 
 PHYSICAL REVIEW B, 58 (7), 3641-3662 (1998). 
 Relativistic separable dual-space Gaussian pseudopotentials from H to Rn.
 https://doi.org/10.1103/PhysRevB.58.3641

 Lippert, G; Hutter, J; Parrinello, M. 
 MOLECULAR PHYSICS, 92 (3), 477-487 (1997). 
 A hybrid Gaussian and plane wave density functional scheme.
 https://doi.org/10.1080/002689797170220

 Goedecker, S; Teter, M; Hutter, J. 
 PHYSICAL REVIEW B, 54 (3), 1703-1710 (1996). 
 Separable dual-space Gaussian pseudopotentials.
 https://doi.org/10.1103/PhysRevB.54.1703


 -------------------------------------------------------------------------------
 -                                                                             -
 -                                T I M I N G                                  -
 -                                                                             -
 -------------------------------------------------------------------------------
 SUBROUTINE                       CALLS  ASD         SELF TIME        TOTAL TIME
                                MAXIMUM       AVERAGE  MAXIMUM  AVERAGE  MAXIMUM
 CP2K                                 1  1.0     0.04     0.13 24504.08 24504.34
 qs_energies                          1  2.0     0.00     0.03 24503.15 24503.41
 mp2_main                             1  3.0     0.00     0.01 24324.96 24325.22
 mp2_gpw_main                         1  4.0     0.00     0.01 24322.98 24323.24
 rpa_ri_compute_en                    1  5.0     0.00     0.00 22641.29 22641.53
 rpa_num_int                          1  6.0     0.01     0.47 22166.19 22166.43
 dbt_total                         1907  9.8     0.01     0.02 11219.90 11220.20
 dbt_contract                       765 11.0     0.06     0.09 10514.58 10517.27
 dbt_tas_total                     1206 13.4    36.08    42.61 10399.83 10399.95
 dbt_tas_multiply                  1065 12.8     0.00     0.00 10396.02 10396.14
 rpa_num_int_RPA_matrix_operati      10  7.0     0.00     0.00  9715.72  9715.82
 invert_eps_compute_W_and_Erpa_      10  8.0     0.00     0.01  9715.68  9715.78
 dbt_tas_dbm                       1065 14.8     0.00     0.01  8221.89  8221.99
 compute_QP_energies                  1  7.0     0.00     0.02  7986.81  7986.90
 compute_self_energy_cubic_gw_k       1  8.0     0.17     0.20  7986.62  7986.71
 compute_Q_kp_RPA                   260  9.0     0.26     0.34  7498.90  7499.60
 cp_cfm_power                       312  9.7     0.49     0.59  7409.18  7410.32
 dbm_multiply                      1065 16.8  6074.07  6894.98  6074.07  6894.98
 cp_cfm_heevd                       441 10.2  6857.81  6861.67  6857.81  6861.67
 parallel_gemm_cfm                 4194 10.2     0.01     0.01  4495.49  4506.55
 parallel_gemm_cfm_cosma           4194 11.2  4495.47  4506.53  4495.47  4506.53
 compute_mat_P_omega                  1  7.0     0.00     0.01  4458.10  4458.16
 compute_mat_P_omega_contract        10  8.0     4.97     5.77  4435.02  4435.07
 dbt_tas_mm_2                       289 15.0     0.00     0.01  4200.07  4200.12
 mp_sync                           9520 12.7  2576.37  3601.55  2576.37  3601.55
 tensor_operation_3c_W               99  9.0     0.00     0.00  3571.47  3572.10
 contract_to_self_energy            198  9.0     0.00     0.04  3234.71  3235.42
 compute_mat_P_omega_calc_P_t        90  9.0     0.00     0.00  2793.69  2793.73
 dbt_tas_mm_3N                      198 16.5     0.00     0.00  1848.58  2127.01
 compute_Wc_real_space_tau_GW       260  9.0     0.00     0.00  1818.53  1819.05
 mp2_ri_gpw_compute_in                1  5.0     0.01     0.25  1681.66  1681.68
 get_2c_integrals                     1  6.0     0.00     0.00  1604.86  1604.88
 inversion_of_M_and_mult_with_c       1  7.0     0.00     0.00  1435.07  1435.10
 compute_Wc_real_space_tau_GW_3     260 10.0     0.00     0.00  1210.59  1215.71
 mp_waitall_2                      5493 16.6  1098.92  1198.27  1098.92  1198.27
 trafo_to_mo_and_kpoints             21  9.0     0.31     0.38  1115.25  1115.26
 dbm_redistribute                  2094 15.5   793.21   967.05   793.21   967.05
 compute_mat_P_omega_calc_M_occ      90  9.0     4.98     5.81   817.56   817.57
 dbt_tas_mm_3T                      396 16.5     0.00     0.00   626.59   740.22
 dbt_tas_communicate_buffer        1955 17.3     0.43     0.74   696.31   724.59
 dbt_tas_replicate                  928 15.0    27.67   107.82   678.16   704.19
 convert_to_new_pgrid              3195 14.8    55.19   117.74   570.14   679.14
 mp_isend_dv                     843465 16.6    95.96   663.49    95.96   663.49
 dbt_tas_replicate_communicate_     717 16.3     0.11     0.20   629.63   654.08
 dbt_copy                           949 10.8     0.09     0.12   582.23   649.49
 dbt_reshape                        929 11.8    62.12    74.02   578.06   645.04
 compute_Wc_real_space_tau_GW_2     260 10.0     0.04     0.04   595.15   597.35
 cp_cfm_cholesky_invert             260 11.0   589.27   590.96   589.27   590.96
 dbt_communicate_buffer             929 12.8     0.27     0.31   499.75   556.51
 get_bandstruc_and_k_dependent_       1  6.0     0.00     0.00   475.09   475.10
 create_kp_and_calc_kp_orbitals       3  7.0     0.00     0.01   475.09   475.10
 compute_mat_P_omega_calc_M_vir      90  9.0     0.00     0.00   440.14   440.14
 cp_cfm_geeig                       129  8.0     0.00     0.00   421.09   421.92
 dbt_tas_mm_1N                      182 15.0     0.00     0.00   281.35   389.69
 cp_cfm_cholesky_decompose          389  9.7   316.09   316.59   316.09   316.59
 cholesky_decomp_Q                  260  9.0     0.32     0.46   306.35   307.25
 mp_alltoall_d11v                 46677 12.8   239.42   280.84   239.42   280.84
 real_space_to_kpoint_transform      37  9.8     2.33     3.47   265.46   265.53
 dbcsr_new_transposed              7514 10.8     0.26     0.45   262.45   263.27
 dbcsr_redistribute                7448 11.9     1.34     1.97   262.11   263.00
 copy_dbcsr_to_fm                  3898 10.4     0.07     0.07   228.13   259.11
 -------------------------------------------------------------------------------

 The number of warnings for this run is : 3
 
 -------------------------------------------------------------------------------
  **** **** ******  **  PROGRAM ENDED AT                 2023-05-29 03:16:20.290
 ***** ** ***  *** **   PROGRAM RAN ON                                  n2cn0171
 **    ****   ******    PROGRAM RAN BY                                  eprop2d1
 ***** **    ** ** **   PROGRAM PROCESS ID                               3100207
  **** **  *******  **  PROGRAM STOPPED IN /scratch/hpc-prf-eprop2d/eprop2d1_Jan
                                           /02_MoS2_MoSe2_WS2_WSe2/1_MoS2/10x10_
                                           PBE/03_reg_RI_1e-2_TZV2P_gap_biggest_
                                           RI
