 DBCSR| CPU Multiplication driver                                           XSMM (U)
 DBCSR| Multrec recursion limit                                              512 (U)
 DBCSR| Multiplication stack size                                           1000 (D)
 DBCSR| Maximum elements for images                                    UNLIMITED (U)
 DBCSR| Multiplicative factor virtual images                                   1 (U)
 DBCSR| Use multiplication densification                                       T (D)
 DBCSR| Multiplication size stacks                                             3 (U)
 DBCSR| Use memory pool for CPU allocation                                     F (U)
 DBCSR| Number of 3D layers                                               SINGLE (U)
 DBCSR| Use MPI memory allocation                                              F (U)
 DBCSR| Use RMA algorithm                                                      F (U)
 DBCSR| Use Communication thread                                               T (U)
 DBCSR| Communication thread load                                             75 (D)
 DBCSR| MPI: My process id                                                     0
 DBCSR| MPI: Number of processes                                            2880
 DBCSR| OMP: Current number of threads                                         4
 DBCSR| OMP: Max number of threads                                             4
 DBCSR| Split modifier for TAS multiplication algorithm                  1.0E+00 (U)


  **** **** ******  **  PROGRAM STARTED AT               2023-06-01 04:23:49.610
 ***** ** ***  *** **   PROGRAM STARTED ON                              n2cn0245
 **    ****   ******    PROGRAM STARTED BY                              eprop2d1
 ***** **    ** ** **   PROGRAM PROCESS ID                               1231153
  **** **  *******  **  PROGRAM STARTED IN /scratch/hpc-prf-eprop2d/eprop2d1_Jan
                                           /02_MoS2_MoSe2_WS2_WSe2/2_MoSe2/10x10
                                           _PBE/06_reg_RI_1e-2_TZVP_gap_huge_RI

 CP2K| version string:                 CP2K version 2023.1 (Development Version)
 CP2K| source code revision number:                                  git:a5f008f
 CP2K| cp2kflags: omp libint fftw3 libxc elpa parallel scalapack cosma xsmm plum
 CP2K|            ed2 spglib sirius libvori libbqb libvdwxc
 CP2K| is freely available from                            https://www.cp2k.org/
 CP2K| Program compiled at                         Tue Apr 11 10:47:55 CEST 2023
 CP2K| Program compiled on                                              n2login5
 CP2K| Program compiled for                                                local
 CP2K| Data directory path    /opt/software/pc2/EB-SW/software/CP2K/2023.1-foss-
 CP2K| Input file name                                                    GW.inp

 GLOBAL| Force Environment number                                              1
 GLOBAL| Basis set file name                                        BASIS_MOLOPT
 GLOBAL| Potential file name                                      GTH_POTENTIALS
 GLOBAL| MM Potential file name                                     MM_POTENTIAL
 GLOBAL| Coordinate file name                                      __STD_INPUT__
 GLOBAL| Method name                                                        CP2K
 GLOBAL| Project name                                                       MoS2
 GLOBAL| Run type                                                         ENERGY
 GLOBAL| FFT library                                                       FFTW3
 GLOBAL| Diagonalization library                                            ELPA
 GLOBAL| DGEMM library                                                      BLAS
 GLOBAL| Minimum number of eigenvectors for ELPA usage                        16
 GLOBAL| Orthonormality check for eigenvectors                          DISABLED
 GLOBAL| Matrix multiplication library                                     COSMA
 GLOBAL| All-to-all communication in single precision                          F
 GLOBAL| FFTs using library dependent lengths                                  F
 GLOBAL| Grid backend                                                       AUTO
 GLOBAL| Global print level                                               MEDIUM
 GLOBAL| MPI I/O enabled                                                       T
 GLOBAL| Total number of message passing processes                          2880
 GLOBAL| Number of threads for this process                                    4
 GLOBAL| This output is from process                                           0
 GLOBAL| Stack size for threads created by OpenMP (OMP_STACKSIZE)        default
 GLOBAL| CPU model name                          AMD EPYC 7763 64-Core Processor
 GLOBAL| CPUID                                                              1002
 GLOBAL| Compiled for CPUID                                                    0

 *** HINT in environment.F:882 :: The compiler target flags (generic) used ***
 *** to build this binary cannot exploit all extensions of this CPU model  ***
 *** (x86_avx2). Consider compiler target flags as part of FCFLAGS and     ***
 *** CFLAGS (ARCH file).                                                   ***


 MEMORY| system memory details [Kb]
 MEMORY|                        rank 0           min           max       average
 MEMORY| MemTotal            263914152     263914148     263914156     263914150
 MEMORY| MemFree             240055768     232617948     250902868     244175660
 MEMORY| Buffers                187000         56388        354116        245880
 MEMORY| Cached                8918936       4482536      16859992       6274007
 MEMORY| Slab                  7337400       1398772      13126292       6064736
 MEMORY| SReclaimable           373832        178988        560392        290559
 MEMORY| MemLikelyFree       249535536     243361000     256362924     250986108


 *** Fundamental physical constants (SI units) ***

 *** Literature: B. J. Mohr and B. N. Taylor,
 ***             CODATA recommended values of the fundamental physical
 ***             constants: 2006, Web Version 5.1
 ***             http://physics.nist.gov/constants

 Speed of light in vacuum [m/s]                             2.99792458000000E+08
 Magnetic constant or permeability of vacuum [N/A**2]       1.25663706143592E-06
 Electric constant or permittivity of vacuum [F/m]          8.85418781762039E-12
 Planck constant (h) [J*s]                                  6.62606896000000E-34
 Planck constant (h-bar) [J*s]                              1.05457162825177E-34
 Elementary charge [C]                                      1.60217648700000E-19
 Electron mass [kg]                                         9.10938215000000E-31
 Electron g factor [ ]                                     -2.00231930436220E+00
 Proton mass [kg]                                           1.67262163700000E-27
 Fine-structure constant                                    7.29735253760000E-03
 Rydberg constant [1/m]                                     1.09737315685270E+07
 Avogadro constant [1/mol]                                  6.02214179000000E+23
 Boltzmann constant [J/K]                                   1.38065040000000E-23
 Atomic mass unit [kg]                                      1.66053878200000E-27
 Bohr radius [m]                                            5.29177208590000E-11

 *** Conversion factors ***

 [u] -> [a.u.]                                              1.82288848426455E+03
 [Angstrom] -> [Bohr] = [a.u.]                              1.88972613288564E+00
 [a.u.] = [Bohr] -> [Angstrom]                              5.29177208590000E-01
 [a.u.] -> [s]                                              2.41888432650478E-17
 [a.u.] -> [fs]                                             2.41888432650478E-02
 [a.u.] -> [J]                                              4.35974393937059E-18
 [a.u.] -> [N]                                              8.23872205491840E-08
 [a.u.] -> [K]                                              3.15774647902944E+05
 [a.u.] -> [kJ/mol]                                         2.62549961709828E+03
 [a.u.] -> [kcal/mol]                                       6.27509468713739E+02
 [a.u.] -> [Pa]                                             2.94210107994716E+13
 [a.u.] -> [bar]                                            2.94210107994716E+08
 [a.u.] -> [atm]                                            2.90362800883016E+08
 [a.u.] -> [eV]                                             2.72113838565563E+01
 [a.u.] -> [Hz]                                             6.57968392072181E+15
 [a.u.] -> [1/cm] (wave numbers)                            2.19474631370540E+05
 [a.u./Bohr**2] -> [1/cm]                                   5.14048714338585E+03
 

 CELL_TOP| Volume [angstrom^3]:                                     14317.500000
 CELL_TOP| Vector a [angstrom    33.200     0.000     0.000   |a| =    33.200000
 CELL_TOP| Vector b [angstrom   -16.600    28.750     0.000   |b| =    33.198230
 CELL_TOP| Vector c [angstrom     0.000     0.000    15.000   |c| =    15.000000
 CELL_TOP| Angle (b,c), alpha [degree]:                                90.000000
 CELL_TOP| Angle (a,c), beta  [degree]:                                90.000000
 CELL_TOP| Angle (a,b), gamma [degree]:                               120.001763
 CELL_TOP| Numerically orthorhombic:                                          NO
 CELL_TOP| Periodicity                                                        XY

 CELL_UC| Volume [angstrom^3]:                                        143.175000
 CELL_UC| Vector a [angstrom]     3.320     0.000     0.000   |a| =     3.320000
 CELL_UC| Vector b [angstrom]    -1.660     2.875     0.000   |b| =     3.319823
 CELL_UC| Vector c [angstrom]     0.000     0.000    15.000   |c| =    15.000000
 CELL_UC| Angle (b,c), alpha [degree]:                                 90.000000
 CELL_UC| Angle (a,c), beta  [degree]:                                 90.000000
 CELL_UC| Angle (a,b), gamma [degree]:                                120.001763
 CELL_UC| Numerically orthorhombic:                                           NO
 CELL_UC| Periodicity                                                         XY

 GENERATE|  Preliminary Number of Bonds generated:                             0
 GENERATE|  Achieved consistency in connectivity generation.

 CELL| Volume [angstrom^3]:                                         14317.500000
 CELL| Vector a [angstrom]:      33.200     0.000     0.000   |a| =    33.200000
 CELL| Vector b [angstrom]:     -16.600    28.750     0.000   |b| =    33.198230
 CELL| Vector c [angstrom]:       0.000     0.000    15.000   |c| =    15.000000
 CELL| Angle (b,c), alpha [degree]:                                    90.000000
 CELL| Angle (a,c), beta  [degree]:                                    90.000000
 CELL| Angle (a,b), gamma [degree]:                                   120.001763
 CELL| Numerically orthorhombic:                                              NO
 CELL| Periodicity                                                            XY

 CELL_REF| Volume [angstrom^3]:                                     14317.500000
 CELL_REF| Vector a [angstrom    33.200     0.000     0.000   |a| =    33.200000
 CELL_REF| Vector b [angstrom   -16.600    28.750     0.000   |b| =    33.198230
 CELL_REF| Vector c [angstrom     0.000     0.000    15.000   |c| =    15.000000
 CELL_REF| Angle (b,c), alpha [degree]:                                90.000000
 CELL_REF| Angle (a,c), beta  [degree]:                                90.000000
 CELL_REF| Angle (a,b), gamma [degree]:                               120.001763
 CELL_REF| Numerically orthorhombic:                                          NO
 CELL_REF| Periodicity                                                        XY

 *******************************************************************************
 *******************************************************************************
 **                                                                           **
 **     #####                         ##              ##                      **
 **    ##   ##            ##          ##              ##                      **
 **   ##     ##                       ##            ######                    **
 **   ##     ##  ##   ##  ##   #####  ##  ##   ####   ##    #####    #####    **
 **   ##     ##  ##   ##  ##  ##      ## ##   ##      ##   ##   ##  ##   ##   **
 **   ##  ## ##  ##   ##  ##  ##      ####     ###    ##   ######   ######    **
 **    ##  ###   ##   ##  ##  ##      ## ##      ##   ##   ##       ##        **
 **     #######   #####   ##   #####  ##  ##  ####    ##    #####   ##        **
 **           ##                                                    ##        **
 **                                                                           **
 **                                                ... make the atoms dance   **
 **                                                                           **
 **            Copyright (C) by CP2K developers group (2000-2023)             **
 **                      J. Chem. Phys. 152, 194103 (2020)                    **
 **                                                                           **
 *******************************************************************************

 DFT| Spin restricted Kohn-Sham (RKS) calculation                            RKS
 DFT| Multiplicity                                                             1
 DFT| Number of spin states                                                    1
 DFT| Charge                                                                   0
 DFT| Self-interaction correction (SIC)                                       NO
 DFT| Cutoffs: density                                              1.000000E-10
 DFT|          gradient                                             1.000000E-10
 DFT|          tau                                                  1.000000E-10
 DFT|          cutoff_smoothing_range                               0.000000E+00
 DFT| XC density smoothing                                                  NONE
 DFT| XC derivatives                                                          PW

 FUNCTIONAL| PADE:
 FUNCTIONAL| S. Goedecker, M. Teter and J. Hutter, Phys. Rev. B 54, 1703 (1996) 


 QS| Method:                                                                 GPW
 QS| Density plane wave grid type                        NON-SPHERICAL FULLSPACE
 QS| Number of grid levels:                                                    4
 QS| Density cutoff [a.u.]:                                                250.0
 QS| Multi grid cutoff [a.u.]: 1) grid level                               250.0
 QS|                           2) grid level                                83.3
 QS|                           3) grid level                                27.8
 QS|                           4) grid level                                 9.3
 QS| Grid level progression factor:                                          3.0
 QS| Relative density cutoff [a.u.]:                                        50.0
 QS| Interaction thresholds: eps_pgf_orb:                                1.0E-40
 QS|                         eps_filter_matrix:                          0.0E+00
 QS|                         eps_core_charge:                            1.0E-42
 QS|                         eps_rho_gspace:                             1.0E-40
 QS|                         eps_rho_rspace:                             1.0E-40
 QS|                         eps_gvg_rspace:                             1.0E-20
 QS|                         eps_ppl:                                    1.0E-02
 QS|                         eps_ppnl:                                   1.0E-22


 ATOMIC KIND INFORMATION

  1. Atomic kind: Mo                                    Number of atoms:     100

     Orbital Basis Set                                        TZVP-MOLOPT-SR-GTH

       Number of orbital shell sets:                                           1
       Number of orbital shells:                                              11
       Number of primitive Cartesian functions:                                7
       Number of Cartesian basis functions:                                   41
       Number of spherical basis functions:                                   35
       Norm type:                                                              2

       Normalised Cartesian orbitals:

                        Set   Shell   Orbital            Exponent    Coefficient

                          1       1    2s                2.540273      -1.347286
                                                         1.999996       0.728128
                                                         0.894040       0.538325
                                                         0.439257       0.138859
                                                         0.189498       0.017388
                                                         0.083802      -0.011271
                                                         0.052949      -0.000447

                          1       2    3s                2.540273       0.117404
                                                         1.999996      -0.257366
                                                         0.894040       0.160976
                                                         0.439257       0.021863
                                                         0.189498      -0.097132
                                                         0.083802      -0.024730
                                                         0.052949      -0.037323

                          1       3    4s                2.540273       0.911432
                                                         1.999996      -3.197513
                                                         0.894040       2.305463
                                                         0.439257      -1.066869
                                                         0.189498       0.281610
                                                         0.083802      -0.247438
                                                         0.052949       0.194863

                          1       4    5s                2.540273       0.190511
                                                         1.999996       0.663305
                                                         0.894040      -0.277779
                                                         0.439257       0.087883
                                                         0.189498      -0.134808
                                                         0.083802      -0.125374
                                                         0.052949       0.060527

                          1       5    3px               2.540273       3.649549
                                                         1.999996      -3.522362
                                                         0.894040      -0.796260
                                                         0.439257      -0.102391
                                                         0.189498       0.030257
                                                         0.083802       0.012043
                                                         0.052949      -0.005551
                          1       5    3py               2.540273       3.649549
                                                         1.999996      -3.522362
                                                         0.894040      -0.796260
                                                         0.439257      -0.102391
                                                         0.189498       0.030257
                                                         0.083802       0.012043
                                                         0.052949      -0.005551
                          1       5    3pz               2.540273       3.649549
                                                         1.999996      -3.522362
                                                         0.894040      -0.796260
                                                         0.439257      -0.102391
                                                         0.189498       0.030257
                                                         0.083802       0.012043
                                                         0.052949      -0.005551

                          1       6    4px               2.540273       0.130676
                                                         1.999996       0.100306
                                                         0.894040      -0.137933
                                                         0.439257      -0.038630
                                                         0.189498      -0.100430
                                                         0.083802      -0.009149
                                                         0.052949      -0.010276
                          1       6    4py               2.540273       0.130676
                                                         1.999996       0.100306
                                                         0.894040      -0.137933
                                                         0.439257      -0.038630
                                                         0.189498      -0.100430
                                                         0.083802      -0.009149
                                                         0.052949      -0.010276
                          1       6    4pz               2.540273       0.130676
                                                         1.999996       0.100306
                                                         0.894040      -0.137933
                                                         0.439257      -0.038630
                                                         0.189498      -0.100430
                                                         0.083802      -0.009149
                                                         0.052949      -0.010276

                          1       7    5px               2.540273       0.518415
                                                         1.999996       0.049290
                                                         0.894040      -0.003513
                                                         0.439257      -0.436181
                                                         0.189498      -0.029910
                                                         0.083802      -0.032193
                                                         0.052949       0.029939
                          1       7    5py               2.540273       0.518415
                                                         1.999996       0.049290
                                                         0.894040      -0.003513
                                                         0.439257      -0.436181
                                                         0.189498      -0.029910
                                                         0.083802      -0.032193
                                                         0.052949       0.029939
                          1       7    5pz               2.540273       0.518415
                                                         1.999996       0.049290
                                                         0.894040      -0.003513
                                                         0.439257      -0.436181
                                                         0.189498      -0.029910
                                                         0.083802      -0.032193
                                                         0.052949       0.029939

                          1       8    4dx2              2.540273      -1.446942
                                                         1.999996       1.845373
                                                         0.894040       0.335548
                                                         0.439257       0.133939
                                                         0.189498       0.030529
                                                         0.083802       0.002068
                                                         0.052949       0.000807
                          1       8    4dxy              2.540273      -2.506177
                                                         1.999996       3.196279
                                                         0.894040       0.581186
                                                         0.439257       0.231990
                                                         0.189498       0.052877
                                                         0.083802       0.003582
                                                         0.052949       0.001398
                          1       8    4dxz              2.540273      -2.506177
                                                         1.999996       3.196279
                                                         0.894040       0.581186
                                                         0.439257       0.231990
                                                         0.189498       0.052877
                                                         0.083802       0.003582
                                                         0.052949       0.001398
                          1       8    4dy2              2.540273      -1.446942
                                                         1.999996       1.845373
                                                         0.894040       0.335548
                                                         0.439257       0.133939
                                                         0.189498       0.030529
                                                         0.083802       0.002068
                                                         0.052949       0.000807
                          1       8    4dyz              2.540273      -2.506177
                                                         1.999996       3.196279
                                                         0.894040       0.581186
                                                         0.439257       0.231990
                                                         0.189498       0.052877
                                                         0.083802       0.003582
                                                         0.052949       0.001398
                          1       8    4dz2              2.540273      -1.446942
                                                         1.999996       1.845373
                                                         0.894040       0.335548
                                                         0.439257       0.133939
                                                         0.189498       0.030529
                                                         0.083802       0.002068
                                                         0.052949       0.000807

                          1       9    5dx2              2.540273       1.183516
                                                         1.999996      -1.496893
                                                         0.894040      -0.288851
                                                         0.439257      -0.115873
                                                         0.189498       0.057412
                                                         0.083802       0.002105
                                                         0.052949       0.004748
                          1       9    5dxy              2.540273       2.049910
                                                         1.999996      -2.592694
                                                         0.894040      -0.500305
                                                         0.439257      -0.200698
                                                         0.189498       0.099440
                                                         0.083802       0.003646
                                                         0.052949       0.008223
                          1       9    5dxz              2.540273       2.049910
                                                         1.999996      -2.592694
                                                         0.894040      -0.500305
                                                         0.439257      -0.200698
                                                         0.189498       0.099440
                                                         0.083802       0.003646
                                                         0.052949       0.008223
                          1       9    5dy2              2.540273       1.183516
                                                         1.999996      -1.496893
                                                         0.894040      -0.288851
                                                         0.439257      -0.115873
                                                         0.189498       0.057412
                                                         0.083802       0.002105
                                                         0.052949       0.004748
                          1       9    5dyz              2.540273       2.049910
                                                         1.999996      -2.592694
                                                         0.894040      -0.500305
                                                         0.439257      -0.200698
                                                         0.189498       0.099440
                                                         0.083802       0.003646
                                                         0.052949       0.008223
                          1       9    5dz2              2.540273       1.183516
                                                         1.999996      -1.496893
                                                         0.894040      -0.288851
                                                         0.439257      -0.115873
                                                         0.189498       0.057412
                                                         0.083802       0.002105
                                                         0.052949       0.004748

                          1      10    6dx2              2.540273       0.180795
                                                         1.999996       0.220695
                                                         0.894040       1.401603
                                                         0.439257      -0.205481
                                                         0.189498      -0.008824
                                                         0.083802      -0.020282
                                                         0.052949       0.004446
                          1      10    6dxy              2.540273       0.313146
                                                         1.999996       0.382255
                                                         0.894040       2.427647
                                                         0.439257      -0.355904
                                                         0.189498      -0.015284
                                                         0.083802      -0.035129
                                                         0.052949       0.007700
                          1      10    6dxz              2.540273       0.313146
                                                         1.999996       0.382255
                                                         0.894040       2.427647
                                                         0.439257      -0.355904
                                                         0.189498      -0.015284
                                                         0.083802      -0.035129
                                                         0.052949       0.007700
                          1      10    6dy2              2.540273       0.180795
                                                         1.999996       0.220695
                                                         0.894040       1.401603
                                                         0.439257      -0.205481
                                                         0.189498      -0.008824
                                                         0.083802      -0.020282
                                                         0.052949       0.004446
                          1      10    6dyz              2.540273       0.313146
                                                         1.999996       0.382255
                                                         0.894040       2.427647
                                                         0.439257      -0.355904
                                                         0.189498      -0.015284
                                                         0.083802      -0.035129
                                                         0.052949       0.007700
                          1      10    6dz2              2.540273       0.180795
                                                         1.999996       0.220695
                                                         0.894040       1.401603
                                                         0.439257      -0.205481
                                                         0.189498      -0.008824
                                                         0.083802      -0.020282
                                                         0.052949       0.004446

                          1      11    5fx3              2.540273       0.800295
                                                         1.999996      -0.726100
                                                         0.894040      -0.319551
                                                         0.439257      -0.112926
                                                         0.189498      -0.010366
                                                         0.083802      -0.000580
                                                         0.052949      -0.000060
                          1      11    5fx2y             2.540273       1.789514
                                                         1.999996      -1.623609
                                                         0.894040      -0.714538
                                                         0.439257      -0.252510
                                                         0.189498      -0.023179
                                                         0.083802      -0.001296
                                                         0.052949      -0.000134
                          1      11    5fx2z             2.540273       1.789514
                                                         1.999996      -1.623609
                                                         0.894040      -0.714538
                                                         0.439257      -0.252510
                                                         0.189498      -0.023179
                                                         0.083802      -0.001296
                                                         0.052949      -0.000134
                          1      11    5fxy2             2.540273       1.789514
                                                         1.999996      -1.623609
                                                         0.894040      -0.714538
                                                         0.439257      -0.252510
                                                         0.189498      -0.023179
                                                         0.083802      -0.001296
                                                         0.052949      -0.000134
                          1      11    5fxyz             2.540273       3.099529
                                                         1.999996      -2.812174
                                                         0.894040      -1.237616
                                                         0.439257      -0.437359
                                                         0.189498      -0.040147
                                                         0.083802      -0.002245
                                                         0.052949      -0.000233
                          1      11    5fxz2             2.540273       1.789514
                                                         1.999996      -1.623609
                                                         0.894040      -0.714538
                                                         0.439257      -0.252510
                                                         0.189498      -0.023179
                                                         0.083802      -0.001296
                                                         0.052949      -0.000134
                          1      11    5fy3              2.540273       0.800295
                                                         1.999996      -0.726100
                                                         0.894040      -0.319551
                                                         0.439257      -0.112926
                                                         0.189498      -0.010366
                                                         0.083802      -0.000580
                                                         0.052949      -0.000060
                          1      11    5fy2z             2.540273       1.789514
                                                         1.999996      -1.623609
                                                         0.894040      -0.714538
                                                         0.439257      -0.252510
                                                         0.189498      -0.023179
                                                         0.083802      -0.001296
                                                         0.052949      -0.000134
                          1      11    5fyz2             2.540273       1.789514
                                                         1.999996      -1.623609
                                                         0.894040      -0.714538
                                                         0.439257      -0.252510
                                                         0.189498      -0.023179
                                                         0.083802      -0.001296
                                                         0.052949      -0.000134
                          1      11    5fz3              2.540273       0.800295
                                                         1.999996      -0.726100
                                                         0.894040      -0.319551
                                                         0.439257      -0.112926
                                                         0.189498      -0.010366
                                                         0.083802      -0.000580
                                                         0.052949      -0.000060

     RI Auxiliary Basis Set                                            RI-conv-2

       Number of orbital shell sets:                                          26
       Number of orbital shells:                                              26
       Number of primitive Cartesian functions:                               26
       Number of Cartesian basis functions:                                  217
       Number of spherical basis functions:                                  144
       Norm type:                                                              2

       Normalised Cartesian orbitals:

                        Set   Shell   Orbital            Exponent    Coefficient

                          1       1    1s                0.215886       0.225724

                          2       1    1px               0.241546       0.241374
                          2       1    1py               0.241546       0.241374
                          2       1    1pz               0.241546       0.241374

                          3       1    1fx3              0.262719       0.072746
                          3       1    1fx2y             0.262719       0.162665
                          3       1    1fx2z             0.262719       0.162665
                          3       1    1fxy2             0.262719       0.162665
                          3       1    1fxyz             0.262719       0.281745
                          3       1    1fxz2             0.262719       0.162665
                          3       1    1fy3              0.262719       0.072746
                          3       1    1fy2z             0.262719       0.162665
                          3       1    1fyz2             0.262719       0.162665
                          3       1    1fz3              0.262719       0.072746

                          4       1    1gx4              0.262828       0.028218
                          4       1    1gx3y             0.262828       0.074659
                          4       1    1gx3z             0.262828       0.074659
                          4       1    1gx2y2            0.262828       0.096384
                          4       1    1gx2yz            0.262828       0.166942
                          4       1    1gx2z2            0.262828       0.096384
                          4       1    1gxy3             0.262828       0.074659
                          4       1    1gxy2z            0.262828       0.166942
                          4       1    1gxyz2            0.262828       0.166942
                          4       1    1gxz3             0.262828       0.074659
                          4       1    1gy4              0.262828       0.028218
                          4       1    1gy3z             0.262828       0.074659
                          4       1    1gy2z2            0.262828       0.096384
                          4       1    1gyz3             0.262828       0.074659
                          4       1    1gz4              0.262828       0.028218

                          5       1    1dx2              0.345202       0.255881
                          5       1    1dxy              0.345202       0.443199
                          5       1    1dxz              0.345202       0.443199
                          5       1    1dy2              0.345202       0.255881
                          5       1    1dyz              0.345202       0.443199
                          5       1    1dz2              0.345202       0.255881

                          6       1    1px               0.419826       0.481700
                          6       1    1py               0.419826       0.481700
                          6       1    1pz               0.419826       0.481700

                          7       1    1fx3              0.465046       0.262918
                          7       1    1fx2y             0.465046       0.587902
                          7       1    1fx2z             0.465046       0.587902
                          7       1    1fxy2             0.465046       0.587902
                          7       1    1fxyz             0.465046       1.018277
                          7       1    1fxz2             0.465046       0.587902
                          7       1    1fy3              0.465046       0.262918
                          7       1    1fy2z             0.465046       0.587902
                          7       1    1fyz2             0.465046       0.587902
                          7       1    1fz3              0.465046       0.262918

                          8       1    1gx4              0.490105       0.156578
                          8       1    1gx3y             0.490105       0.414266
                          8       1    1gx3z             0.490105       0.414266
                          8       1    1gx2y2            0.490105       0.534815
                          8       1    1gx2yz            0.490105       0.926328
                          8       1    1gx2z2            0.490105       0.534815
                          8       1    1gxy3             0.490105       0.414266
                          8       1    1gxy2z            0.490105       0.926328
                          8       1    1gxyz2            0.490105       0.926328
                          8       1    1gxz3             0.490105       0.414266
                          8       1    1gy4              0.490105       0.156578
                          8       1    1gy3z             0.490105       0.414266
                          8       1    1gy2z2            0.490105       0.534815
                          8       1    1gyz3             0.490105       0.414266
                          8       1    1gz4              0.490105       0.156578

                          9       1    1hx5              0.578071       0.124963
                          9       1    1hx4y             0.578071       0.374890
                          9       1    1hx4z             0.578071       0.374890
                          9       1    1hx3y2            0.578071       0.572654
                          9       1    1hx3yz            0.578071       0.991867
                          9       1    1hx3z2            0.578071       0.572654
                          9       1    1hx2y3            0.578071       0.572654
                          9       1    1hx2y2z           0.578071       1.280494
                          9       1    1hx2yz2           0.578071       1.280494
                          9       1    1hx2z3            0.578071       0.572654
                          9       1    1hxy4             0.578071       0.374890
                          9       1    1hxy3z            0.578071       0.991867
                          9       1    1hxy2z2           0.578071       1.280494
                          9       1    1hxyz3            0.578071       0.991867
                          9       1    1hxz4             0.578071       0.374890
                          9       1    1hy5              0.578071       0.124963
                          9       1    1hy4z             0.578071       0.374890
                          9       1    1hy3z2            0.578071       0.572654
                          9       1    1hy2z3            0.578071       0.572654
                          9       1    1hyz4             0.578071       0.374890
                          9       1    1hz5              0.578071       0.124963

                         10       1    1s                0.639555       0.509705

                         11       1    1dx2              0.815331       1.151447
                         11       1    1dxy              0.815331       1.994364
                         11       1    1dxz              0.815331       1.994364
                         11       1    1dy2              0.815331       1.151447
                         11       1    1dyz              0.815331       1.994364
                         11       1    1dz2              0.815331       1.151447

                         12       1    1fx3              0.967481       1.366627
                         12       1    1fx2y             0.967481       3.055871
                         12       1    1fx2z             0.967481       3.055871
                         12       1    1fxy2             0.967481       3.055871
                         12       1    1fxyz             0.967481       5.292923
                         12       1    1fxz2             0.967481       3.055871
                         12       1    1fy3              0.967481       1.366627
                         12       1    1fy2z             0.967481       3.055871
                         12       1    1fyz2             0.967481       3.055871
                         12       1    1fz3              0.967481       1.366627

                         13       1    1gx4              1.067170       1.330693
                         13       1    1gx3y             1.067170       3.520683
                         13       1    1gx3z             1.067170       3.520683
                         13       1    1gx2y2            1.067170       4.545182
                         13       1    1gx2yz            1.067170       7.872486
                         13       1    1gx2z2            1.067170       4.545182
                         13       1    1gxy3             1.067170       3.520683
                         13       1    1gxy2z            1.067170       7.872486
                         13       1    1gxyz2            1.067170       7.872486
                         13       1    1gxz3             1.067170       3.520683
                         13       1    1gy4              1.067170       1.330693
                         13       1    1gy3z             1.067170       3.520683
                         13       1    1gy2z2            1.067170       4.545182
                         13       1    1gyz3             1.067170       3.520683
                         13       1    1gz4              1.067170       1.330693

                         14       1    1hx5              1.186650       1.293876
                         14       1    1hx4y             1.186650       3.881629
                         14       1    1hx4z             1.186650       3.881629
                         14       1    1hx3y2            1.186650       5.929286
                         14       1    1hx3yz            1.186650      10.269825
                         14       1    1hx3z2            1.186650       5.929286
                         14       1    1hx2y3            1.186650       5.929286
                         14       1    1hx2y2z           1.186650      13.258287
                         14       1    1hx2yz2           1.186650      13.258287
                         14       1    1hx2z3            1.186650       5.929286
                         14       1    1hxy4             1.186650       3.881629
                         14       1    1hxy3z            1.186650      10.269825
                         14       1    1hxy2z2           1.186650      13.258287
                         14       1    1hxyz3            1.186650      10.269825
                         14       1    1hxz4             1.186650       3.881629
                         14       1    1hy5              1.186650       1.293876
                         14       1    1hy4z             1.186650       3.881629
                         14       1    1hy3z2            1.186650       5.929286
                         14       1    1hy2z3            1.186650       5.929286
                         14       1    1hyz4             1.186650       3.881629
                         14       1    1hz5              1.186650       1.293876

                         15       1    1px               1.260930       1.904600
                         15       1    1py               1.260930       1.904600
                         15       1    1pz               1.260930       1.904600

                         16       1    1s                1.329470       0.882407

                         17       1    1dx2              1.518890       3.420429
                         17       1    1dxy              1.518890       5.924356
                         17       1    1dxz              1.518890       5.924356
                         17       1    1dy2              1.518890       3.420429
                         17       1    1dyz              1.518890       5.924356
                         17       1    1dz2              1.518890       3.420429

                         18       1    1px               1.700750       2.768476
                         18       1    1py               1.700750       2.768476
                         18       1    1pz               1.700750       2.768476

                         19       1    1gx4              2.053300       8.047844
                         19       1    1gx3y             2.053300      21.292594
                         19       1    1gx3z             2.053300      21.292594
                         19       1    1gx2y2            2.053300      27.488620
                         19       1    1gx2yz            2.053300      47.611687
                         19       1    1gx2z2            2.053300      27.488620
                         19       1    1gxy3             2.053300      21.292594
                         19       1    1gxy2z            2.053300      47.611687
                         19       1    1gxyz2            2.053300      47.611687
                         19       1    1gxz3             2.053300      21.292594
                         19       1    1gy4              2.053300       8.047844
                         19       1    1gy3z             2.053300      21.292594
                         19       1    1gy2z2            2.053300      27.488620
                         19       1    1gyz3             2.053300      21.292594
                         19       1    1gz4              2.053300       8.047844

                         20       1    1hx5              2.213580       9.815301
                         20       1    1hx4y             2.213580      29.445904
                         20       1    1hx4z             2.213580      29.445904
                         20       1    1hx3y2            2.213580      44.979361
                         20       1    1hx3yz            2.213580      77.906539
                         20       1    1hx3z2            2.213580      44.979361
                         20       1    1hx2y3            2.213580      44.979361
                         20       1    1hx2y2z           2.213580     100.576910
                         20       1    1hx2yz2           2.213580     100.576910
                         20       1    1hx2z3            2.213580      44.979361
                         20       1    1hxy4             2.213580      29.445904
                         20       1    1hxy3z            2.213580      77.906539
                         20       1    1hxy2z2           2.213580     100.576910
                         20       1    1hxyz3            2.213580      77.906539
                         20       1    1hxz4             2.213580      29.445904
                         20       1    1hy5              2.213580       9.815301
                         20       1    1hy4z             2.213580      29.445904
                         20       1    1hy3z2            2.213580      44.979361
                         20       1    1hy2z3            2.213580      44.979361
                         20       1    1hyz4             2.213580      29.445904
                         20       1    1hz5              2.213580       9.815301

                         21       1    1s                2.238500       1.304301

                         22       1    1fx3              2.295780       9.550972
                         22       1    1fx2y             2.295780      21.356622
                         22       1    1fx2z             2.295780      21.356622
                         22       1    1fxy2             2.295780      21.356622
                         22       1    1fxyz             2.295780      36.990754
                         22       1    1fxz2             2.295780      21.356622
                         22       1    1fy3              2.295780       9.550972
                         22       1    1fy2z             2.295780      21.356622
                         22       1    1fyz2             2.295780      21.356622
                         22       1    1fz3              2.295780       9.550972

                         23       1    1dx2              2.495310       8.154125
                         23       1    1dxy              2.495310      14.123358
                         23       1    1dxz              2.495310      14.123358
                         23       1    1dy2              2.495310       8.154125
                         23       1    1dyz              2.495310      14.123358
                         23       1    1dz2              2.495310       8.154125

                         24       1    1fx3              3.364980      22.576938
                         24       1    1fx2y             3.364980      50.483569
                         24       1    1fx2z             3.364980      50.483569
                         24       1    1fxy2             3.364980      50.483569
                         24       1    1fxyz             3.364980      87.440106
                         24       1    1fxz2             3.364980      50.483569
                         24       1    1fy3              3.364980      22.576938
                         24       1    1fy2z             3.364980      50.483569
                         24       1    1fyz2             3.364980      50.483569
                         24       1    1fz3              3.364980      22.576938

                         25       1    1s                3.482800       1.817007

                         26       1    1px               4.645430       9.721258
                         26       1    1py               4.645430       9.721258
                         26       1    1pz               4.645430       9.721258

       Atomic covalent radius [Angstrom]:                                  1.300

       Atomic van der Waals radius [Angstrom]:                             1.670

     GTH Potential information for                                  GTH-PADE-q14

       Description:                       Goedecker-Teter-Hutter pseudopotential
                                           Goedecker et al., PRB 54, 1703 (1996)
                                          Hartwigsen et al., PRB 58, 3641 (1998)
                                                      Krack, TCA 114, 145 (2005)

       Gaussian exponent of the core charge distribution:               2.704164
       Electronic configuration (s p d ...):                           3   6   5

       Parameters of the local part of the GTH pseudopotential:

                          rloc        C1          C2          C3          C4
                        0.430000   16.237452    1.496536

       Parameters of the non-local part of the GTH pseudopotential:

                   l      r(l)      h(i,j,l)

                   0    0.376255    3.362426    2.048528
                                    2.048528   -5.289276
                   1    0.361734   -0.379571    1.718923
                                    1.718923   -4.067713
                   2    0.525828   -1.543211   -0.473760
                                   -0.473760    1.074388

  2. Atomic kind: Se                                    Number of atoms:     200

     Orbital Basis Set                                        TZVP-MOLOPT-SR-GTH

       Number of orbital shell sets:                                           1
       Number of orbital shells:                                               7
       Number of primitive Cartesian functions:                                4
       Number of Cartesian basis functions:                                   18
       Number of spherical basis functions:                                   17
       Norm type:                                                              2

       Normalised Cartesian orbitals:

                        Set   Shell   Orbital            Exponent    Coefficient

                          1       1    2s                1.465689       0.302678
                                                         1.029752      -0.073168
                                                         0.303575      -0.202711
                                                         0.107173      -0.059713

                          1       2    3s                1.465689      -0.155491
                                                         1.029752       0.241663
                                                         0.303575      -0.363851
                                                         0.107173       0.233571

                          1       3    4s                1.465689       1.273873
                                                         1.029752      -0.825574
                                                         0.303575       0.111847
                                                         0.107173       0.081995

                          1       4    3px               1.465689       0.612976
                                                         1.029752      -0.484874
                                                         0.303575      -0.234718
                                                         0.107173      -0.021524
                          1       4    3py               1.465689       0.612976
                                                         1.029752      -0.484874
                                                         0.303575      -0.234718
                                                         0.107173      -0.021524
                          1       4    3pz               1.465689       0.612976
                                                         1.029752      -0.484874
                                                         0.303575      -0.234718
                                                         0.107173      -0.021524

                          1       5    4px               1.465689       0.383325
                                                         1.029752      -0.329453
                                                         0.303575      -0.075164
                                                         0.107173       0.102417
                          1       5    4py               1.465689       0.383325
                                                         1.029752      -0.329453
                                                         0.303575      -0.075164
                                                         0.107173       0.102417
                          1       5    4pz               1.465689       0.383325
                                                         1.029752      -0.329453
                                                         0.303575      -0.075164
                                                         0.107173       0.102417

                          1       6    5px               1.465689       3.760520
                                                         1.029752      -2.704359
                                                         0.303575       0.485527
                                                         0.107173      -0.024362
                          1       6    5py               1.465689       3.760520
                                                         1.029752      -2.704359
                                                         0.303575       0.485527
                                                         0.107173      -0.024362
                          1       6    5pz               1.465689       3.760520
                                                         1.029752      -2.704359
                                                         0.303575       0.485527
                                                         0.107173      -0.024362

                          1       7    4dx2              1.465689       0.513111
                                                         1.029752      -0.664167
                                                         0.303575      -0.134856
                                                         0.107173      -0.008700
                          1       7    4dxy              1.465689       0.888735
                                                         1.029752      -1.150371
                                                         0.303575      -0.233577
                                                         0.107173      -0.015069
                          1       7    4dxz              1.465689       0.888735
                                                         1.029752      -1.150371
                                                         0.303575      -0.233577
                                                         0.107173      -0.015069
                          1       7    4dy2              1.465689       0.513111
                                                         1.029752      -0.664167
                                                         0.303575      -0.134856
                                                         0.107173      -0.008700
                          1       7    4dyz              1.465689       0.888735
                                                         1.029752      -1.150371
                                                         0.303575      -0.233577
                                                         0.107173      -0.015069
                          1       7    4dz2              1.465689       0.513111
                                                         1.029752      -0.664167
                                                         0.303575      -0.134856
                                                         0.107173      -0.008700

     RI Auxiliary Basis Set                                   def2-SVP-RIFIT-mod

       Number of orbital shell sets:                                          21
       Number of orbital shells:                                              21
       Number of primitive Cartesian functions:                               21
       Number of Cartesian basis functions:                                  120
       Number of spherical basis functions:                                   91
       Norm type:                                                              2

       Normalised Cartesian orbitals:

                        Set   Shell   Orbital            Exponent    Coefficient

                          1       1    1s                0.198146       0.211665

                          2       1    1dx2              0.205873       0.103564
                          2       1    1dxy              0.205873       0.179379
                          2       1    1dxz              0.205873       0.179379
                          2       1    1dy2              0.205873       0.103564
                          2       1    1dyz              0.205873       0.179379
                          2       1    1dz2              0.205873       0.103564

                          3       1    1px               0.271607       0.279490
                          3       1    1py               0.271607       0.279490
                          3       1    1pz               0.271607       0.279490

                          4       1    1fx3              0.330155       0.121638
                          4       1    1fx2y             0.330155       0.271990
                          4       1    1fx2z             0.330155       0.271990
                          4       1    1fxy2             0.330155       0.271990
                          4       1    1fxyz             0.330155       0.471101
                          4       1    1fxz2             0.330155       0.271990
                          4       1    1fy3              0.330155       0.121638
                          4       1    1fy2z             0.330155       0.271990
                          4       1    1fyz2             0.330155       0.271990
                          4       1    1fz3              0.330155       0.121638

                          5       1    1s                0.368618       0.337165

                          6       1    1dx2              0.492940       0.477308
                          6       1    1dxy              0.492940       0.826723
                          6       1    1dxz              0.492940       0.826723
                          6       1    1dy2              0.492940       0.477308
                          6       1    1dyz              0.492940       0.826723
                          6       1    1dz2              0.492940       0.477308

                          7       1    1px               0.522961       0.633908
                          7       1    1py               0.522961       0.633908
                          7       1    1pz               0.522961       0.633908

                          8       1    1s                0.572587       0.469128

                          9       1    1fx3              0.711060       0.683508
                          9       1    1fx2y             0.711060       1.528371
                          9       1    1fx2z             0.711060       1.528371
                          9       1    1fxy2             0.711060       1.528371
                          9       1    1fxyz             0.711060       2.647216
                          9       1    1fxz2             0.711060       1.528371
                          9       1    1fy3              0.711060       0.683508
                          9       1    1fy2z             0.711060       1.528371
                          9       1    1fyz2             0.711060       1.528371
                          9       1    1fz3              0.711060       0.683508

                         10       1    1dx2              0.761541       1.021817
                         10       1    1dxy              0.761541       1.769839
                         10       1    1dxz              0.761541       1.769839
                         10       1    1dy2              0.761541       1.021817
                         10       1    1dyz              0.761541       1.769839
                         10       1    1dz2              0.761541       1.021817

                         11       1    1gx4              0.762837       0.528594
                         11       1    1gx3y             0.762837       1.398528
                         11       1    1gx3z             0.762837       1.398528
                         11       1    1gx2y2            0.762837       1.805491
                         11       1    1gx2yz            0.762837       3.127203
                         11       1    1gx2z2            0.762837       1.805491
                         11       1    1gxy3             0.762837       1.398528
                         11       1    1gxy2z            0.762837       3.127203
                         11       1    1gxyz2            0.762837       3.127203
                         11       1    1gxz3             0.762837       1.398528
                         11       1    1gy4              0.762837       0.528594
                         11       1    1gy3z             0.762837       1.398528
                         11       1    1gy2z2            0.762837       1.805491
                         11       1    1gyz3             0.762837       1.398528
                         11       1    1gz4              0.762837       0.528594

                         12       1    1px               1.002555       1.429965
                         12       1    1py               1.002555       1.429965
                         12       1    1pz               1.002555       1.429965

                         13       1    1dx2              1.339632       2.745579
                         13       1    1dxy              1.339632       4.755483
                         13       1    1dxz              1.339632       4.755483
                         13       1    1dy2              1.339632       2.745579
                         13       1    1dyz              1.339632       4.755483
                         13       1    1dz2              1.339632       2.745579

                         14       1    1fx3              1.492646       3.625412
                         14       1    1fx2y             1.492646       8.106668
                         14       1    1fx2z             1.492646       8.106668
                         14       1    1fxy2             1.492646       8.106668
                         14       1    1fxyz             1.492646      14.041160
                         14       1    1fxz2             1.492646       8.106668
                         14       1    1fy3              1.492646       3.625412
                         14       1    1fy2z             1.492646       8.106668
                         14       1    1fyz2             1.492646       8.106668
                         14       1    1fz3              1.492646       3.625412

                         15       1    1px               1.705131       2.777392
                         15       1    1py               1.705131       2.777392
                         15       1    1pz               1.705131       2.777392

                         16       1    1s                2.077977       1.233504

                         17       1    1fx3              2.732672      14.134362
                         17       1    1fx2y             2.732672      31.605393
                         17       1    1fx2z             2.732672      31.605393
                         17       1    1fxy2             2.732672      31.605393
                         17       1    1fxyz             2.732672      54.742147
                         17       1    1fxz2             2.732672      31.605393
                         17       1    1fy3              2.732672      14.134362
                         17       1    1fy2z             2.732672      31.605393
                         17       1    1fyz2             2.732672      31.605393
                         17       1    1fz3              2.732672      14.134362

                         18       1    1gx4              2.959815      21.999507
                         18       1    1gx3y             2.959815      58.205224
                         18       1    1gx3z             2.959815      58.205224
                         18       1    1gx2y2            2.959815      75.142621
                         18       1    1gx2yz            2.959815     130.150837
                         18       1    1gx2z2            2.959815      75.142621
                         18       1    1gxy3             2.959815      58.205224
                         18       1    1gxy2z            2.959815     130.150837
                         18       1    1gxyz2            2.959815     130.150837
                         18       1    1gxz3             2.959815      58.205224
                         18       1    1gy4              2.959815      21.999507
                         18       1    1gy3z             2.959815      58.205224
                         18       1    1gy2z2            2.959815      75.142621
                         18       1    1gyz3             2.959815      58.205224
                         18       1    1gz4              2.959815      21.999507

                         19       1    1dx2              3.469869      14.519688
                         19       1    1dxy              3.469869      25.148837
                         19       1    1dxz              3.469869      25.148837
                         19       1    1dy2              3.469869      14.519688
                         19       1    1dyz              3.469869      25.148837
                         19       1    1dz2              3.469869      14.519688

                         20       1    1px               3.832640       7.643857
                         20       1    1py               3.832640       7.643857
                         20       1    1pz               3.832640       7.643857

                         21       1    1s                4.797700       2.310388

       Atomic covalent radius [Angstrom]:                                  1.160

       Atomic van der Waals radius [Angstrom]:                             1.900

     GTH Potential information for                                   GTH-PADE-q6

       Description:                       Goedecker-Teter-Hutter pseudopotential
                                           Goedecker et al., PRB 54, 1703 (1996)
                                          Hartwigsen et al., PRB 58, 3641 (1998)
                                                      Krack, TCA 114, 145 (2005)

       Gaussian exponent of the core charge distribution:               1.922338
       Electronic configuration (s p d ...):                               2   4

       Parameters of the local part of the GTH pseudopotential:

                          rloc        C1          C2          C3          C4
                        0.510000

       Parameters of the non-local part of the GTH pseudopotential:

                   l      r(l)      h(i,j,l)

                   0    0.432531    5.145131   -0.794740   -0.334051
                                   -0.794740    2.052009    0.862517
                                   -0.334051    0.862517   -1.369203
                   1    0.472473    2.858806    0.249604
                                    0.249604   -0.590670
                   2    0.613420    0.434829


 MOLECULE KIND INFORMATION


 All atoms are their own molecule, skipping detailed information


 TOTAL NUMBERS AND MAXIMUM NUMBERS

  Total number of            - Atomic kinds:                                   2
                             - Atoms:                                        300
                             - Shell sets:                                   300
                             - Shells:                                      2500
                             - Primitive Cartesian functions:               1500
                             - Cartesian basis functions:                   7700
                             - Spherical basis functions:                   6900

  Maximum angular momentum of- Orbital basis functions:                        3
                             - Local part of the GTH pseudopotential:          2
                             - Non-local part of the GTH pseudopotential:      4


 MODULE QUICKSTEP: ATOMIC COORDINATES IN ANGSTROM

   Atom Kind Element         X             Y             Z       Z(eff)     Mass
      1    1 Mo   42      0.000000      0.000000      7.169029  14.0000  95.9600
      2    2 Se   34      1.659874      0.958329      8.838059   6.0000  78.9600
      3    2 Se   34      1.659874      0.958329      5.500000   6.0000  78.9600
      4    1 Mo   42      3.320000      0.000000      7.169029  14.0000  95.9600
      5    2 Se   34      4.979874      0.958329      8.838059   6.0000  78.9600
      6    2 Se   34      4.979874      0.958329      5.500000   6.0000  78.9600
      7    1 Mo   42      6.640000      0.000000      7.169029  14.0000  95.9600
      8    2 Se   34      8.299874      0.958329      8.838059   6.0000  78.9600
      9    2 Se   34      8.299874      0.958329      5.500000   6.0000  78.9600
     10    1 Mo   42      9.960000      0.000000      7.169029  14.0000  95.9600
[...]
 average stack size                                     1.0       2.7       0.0
 marketing flops                     6.884407E+12
 -------------------------------------------------------------------------------
 # multiplications                             57
 max memory usage/rank             920.752128E+06
 # max total images/rank                        5
 # max 3D layers                                1
 # MPI messages exchanged                38413440
 MPI messages size (bytes):
  total size                         3.074609E+12
  min size                           0.000000E+00
  max size                         238.032000E+03
  average size                      80.039922E+03
 MPI breakdown and total messages size (bytes):
             size <=      128              281520                        0
       128 < size <=     8192               22080                148267200
      8192 < size <=    32768            13710760             320142946880
     32768 < size <=   131072             9133165             503160670752
    131072 < size <=  4194304            15265915            2251156209568
   4194304 < size <= 16777216                   0                        0
  16777216 < size                               0                        0
 -------------------------------------------------------------------------------

 *** WARNING in dbcsr_mm.F:290 :: Using a non-square number of MPI ranks   ***
 *** might lead to poor performance. Used ranks: 2880 Suggested: 2916 5776 ***

 -------------------------------------------------------------------------------
 -                                                                             -
 -                      DBCSR MESSAGE PASSING PERFORMANCE                      -
 -                                                                             -
 -------------------------------------------------------------------------------
 ROUTINE             CALLS      AVE VOLUME [Bytes]
 MP_Bcast              219                     12.
 MP_Allreduce          849                     18.
 MP_Alltoall        100543               20656230.
 MP_ISend            27360                  43578.
 MP_IRecv            27360                  43276.
 -------------------------------------------------------------------------------

 -------------------------------------------------------------------------------
 -                                                                             -
 -                                DBM STATISTICS                               -
 -                                                                             -
 -------------------------------------------------------------------------------
    M  x    N  x    K                                          COUNT     PERCENT
    ?  x    ?  x    ?                                   869425923999      34.72%
    ?  x  ???  x   ??                                   139088883632       5.55%
   ??  x   ??  x  ???                                   229126055925       9.15%
   ??  x  ???  x    ?                                   130164288380       5.20%
    ?  x  ???  x    ?                                   250255007062       9.99%
    ?  x    ?  x >999                                    43937095598       1.75%
   ??  x   ??  x   ??                                    22114354034       0.88%
   ??  x   ??  x >999                                    13444286376       0.54%
    ?  x >999  x   ??                                    39199724202       1.57%
    ?  x    ?  x  ???                                   159457106308       6.37%
  ???  x   ??  x   ??                                   179918537100       7.19%
   ??  x  ???  x   ??                                    72335002872       2.89%
    ?  x >999  x    ?                                    72050248054       2.88%
   ??  x    ?  x  ???                                    89196779388       3.56%
   ??  x >999  x   ??                                    20386237196       0.81%
   ??  x    ?  x >999                                    24602637380       0.98%
   ??  x >999  x    ?                                    37477204103       1.50%
    ?  x   ??  x >999                                    24048948185       0.96%
    ?  x   ??  x  ???                                    87663148521       3.50%
 -------------------------------------------------------------------------------

 -------------------------------------------------------------------------------
 -                                                                             -
 -                                GRID STATISTICS                              -
 -                                                                             -
 -------------------------------------------------------------------------------
 LP    KERNEL             BACKEND                              COUNT     PERCENT
 5     collocate general  REF                               28089600      24.60%
 5     integrate general  REF                               28089600      24.60%
 6     collocate general  REF                               15915200      13.94%
 6     integrate general  REF                               15915200      13.94%
 4     collocate general  REF                               11793600      10.33%
 4     integrate general  REF                               11793600      10.33%
 0     collocate general  REF                                1728000       1.51%
 0     integrate general  REF                                 864000       0.76%
 -------------------------------------------------------------------------------

 MEMORY| Estimated peak process memory [MiB]                                6959

 -------------------------------------------------------------------------------
 ----                             MULTIGRID INFO                            ----
 -------------------------------------------------------------------------------
 count for grid        1:       58457320          cutoff [a.u.]          250.00
 count for grid        2:       38010200          cutoff [a.u.]           83.33
 count for grid        3:       25977180          cutoff [a.u.]           27.78
 count for grid        4:        7889440          cutoff [a.u.]            9.26
 total gridlevel count  :      130334140

 -------------------------------------------------------------------------------
 -                                                                             -
 -                         MESSAGE PASSING PERFORMANCE                         -
 -                                                                             -
 -------------------------------------------------------------------------------

 ROUTINE             CALLS      AVE VOLUME [Bytes]
 MP_Group             5945
 MP_Bcast             8119                 924736.
 MP_Allreduce        12185                  21801.
 MP_Sync              9390
 MP_Alltoall          4835
 MP_SendRecv        483672                  11904.
 MP_ISendRecv       483672                  11904.
 MP_Wait            500802
 MP_comm_split        3471
 MP_ISend           824351                 163596.
 MP_IRecv           937423                 156814.
 -------------------------------------------------------------------------------


 -------------------------------------------------------------------------------
 -                                                                             -
 -                           R E F E R E N C E S                               -
 -                                                                             -
 -------------------------------------------------------------------------------
 
 CP2K version 2023.1 (Development Version), the CP2K developers group (2023).
 CP2K is freely available from https://www.cp2k.org/ .

 Kuehne,Thomas D.; Iannuzzi,Marcella; Del Ben,Mauro;
 Rybkin,Vladimir V.; Seewald,Patrick; Stein,Frederick; Laino,Teodoro;
 Khaliullin,Rustam Z.; Schuett,Ole; Schiffmann,Florian; Golze,Dorothea;
 Wilhelm,Jan; Chulkov,Sergey; Bani-Hashemian,Mohammad Hossein;
 Weber,Valery; Borstnik,Urban; Taillefumier,Mathieu;
 Jakobovits,Alice Shoshana; Lazzaro,Alfio; Pabst,Hans; Mueller,Tiziano;
 Schade,Robert; Guidon,Manuel; Andermatt,Samuel; Holmberg,Nico;
 Schenter,Gregory K.; Hehn,Anna; Bussy,Augustin; Belleflamme,Fabian;
 Tabacchi,Gloria; Gloess,Andreas; Lass,Michael; Bethune,Iain;
 Mundy,Christopher J.; Plessl,Christian; Watkins,Matt;
 VandeVondele,Joost; Krack,Matthias; Hutter,Juerg. 
 The Journal of Chemical Physics, 152 (19), (2020). 
 CP2K: An electronic structure and molecular dynamics software package -
 Quickstep: Efficient and accurate electronic structure calculations.
 https://doi.org/10.1063/5.0007045

 Wilhelm, J; Golze, D; Talirz, L; Hutter, J; Pignedoli, CA. 
 JOURNAL OF PHYSICAL CHEMISTRY LETTERS, 9, 306-312 (2018). 
 Toward GW calculations on thousands of atoms.
 https://doi.org/10.1021/acs.jpclett.7b02740

 Wilhelm, J; Hutter, J. PHYSICAL REVIEW B, 95, 235123 (2017). 
 Periodic GW calculations in the Gaussian and plane-waves scheme.
 https://doi.org/10.1103/PhysRevB.95.235123

 Wilhelm, J; Del Ben, M; Hutter, J. 
 JOURNAL OF CHEMICAL THEORY AND COMPUTATION, 12, 3623-3635 (2016). 
 GW in the Gaussian and plane waves scheme with application to linear acenes.
 https://doi.org/10.1021/acs.jctc.6b00380

 Wilhelm, J; Seewald, P; Del Ben, M; Hutter, J. 
 JOURNAL OF CHEMICAL THEORY AND COMPUTATION, 12, 5851-5859 (2016). 
 Large-Scale Cubic-Scaling Random Phase Approximation Correlation.
 https://doi.org/10.1021/acs.jctc.6b00840

 Schuett, Ole; Messmer, Peter; Hutter, Juerg; VandeVondele, Joost. 
 Electronic Structure Calculations on Graphics Processing Units, John
 Wiley & Sons, Ltd, 173-190 (2016). 
 GPU-Accelerated Sparse Matrix-Matrix Multiplication for
 Linear Scaling Density Functional Theory.
 https://doi.org/10.1002/9781118670712.ch8

 Heinecke, A; Henry, G; Hutchinson, M; Pabst, H. 
 Proceedings of Intl. Supercomputing Conference, 981-991 (2016). 
 LIBXSMM: Accelerating Small Matrix Multiplications
 by Runtime Code Generation.
 https://doi.org/10.1109/SC.2016.83

 Del Ben, M; Schuett, O; Wentz, T; Messmer, P; Hutter, J;
 VandeVondele, J. 
 COMPUTER PHYSICS COMMUNICATIONS, 187, 120-129 (2015). 
 Enabling simulation at the fifth rung of DFT: Large scale RPA
 calculations with excellent time to solution.
 https://doi.org/10.1016/j.cpc.2014.10.021

 Borstnik, U; VandeVondele, J; Weber, V; Hutter, J. 
 PARALLEL COMPUTING, 40 (5-6), 47-58 (2014). 
 Sparse matrix multiplication: The distributed block-compressed sparse
 row library.
 https://doi.org/10.1016/j.parco.2014.03.012

 Hutter, J; Iannuzzi, M; Schiffmann, F; VandeVondele, J. 
 WIREs Comput Mol Sci., 4 (1), 15-25 (2014). 
 CP2K: atomistic simulations of condensed matter systems.
 https://doi.org/10.1002/wcms.1159

 Marek, A; Blum, V; Johanni, R; Havu, V; Lang, B; Auckenthaler, T;
 Heinecke, A; Bungartz, H; Lederer, H. 
 Journal of Physics: Condensed Matter, 26 (21), (2014). 
 The ELPA library: scalable parallel eigenvalue solutions for
 electronic structure
 theory and computational science.
 https://doi.org/10.1088/0953-8984/26/21/213201

 Del Ben, M; Hutter, J; VandeVondele, J. 
 JOURNAL OF CHEMICAL THEORY AND COMPUTATION, 9 (6), 2654-2671 (2013). 
 Electron Correlation in the Condensed Phase from a Resolution of
 Identity Approach Based on the Gaussian and Plane Waves Scheme.
 https://doi.org/10.1021/ct4002202

 Del Ben, M; Hutter, J; VandeVondele, J. 
 JOURNAL OF CHEMICAL THEORY AND COMPUTATION, 8 (11), 4177-4188 (2012). 
 Second-Order Moller-Plesset Perturbation Theory in the Condensed Phase:
 An Efficient and Massively Parallel Gaussian and Plane Waves Approach.
 https://doi.org/10.1021/ct300531w

 VandeVondele, J; Hutter, J. 
 JOURNAL OF CHEMICAL PHYSICS, 127 (11), 114105 (2007). 
 Gaussian basis sets for accurate calculations on molecular systems in
 gas and condensed phases.
 https://doi.org/10.1063/1.2770708

 Krack, M. 
 THEORETICAL CHEMISTRY ACCOUNTS, 114 (1-3), 145-152 (2005). 
 Pseudopotentials for H to Kr optimized for gradient-corrected
 exchange-correlation functionals.
 https://doi.org/10.1007/s00214-005-0655-y

 VandeVondele, J; Krack, M; Mohamed, F; Parrinello, M; Chassaing, T;
 Hutter, J. COMPUTER PHYSICS COMMUNICATIONS, 167 (2), 103-128 (2005). 
 QUICKSTEP: Fast and accurate density functional calculations using a
 mixed Gaussian and plane waves approach.
 https://doi.org/10.1016/j.cpc.2004.12.014

 Frigo, M; Johnson, SG. 
 PROCEEDINGS OF THE IEEE, 93 (2), 216-231 (2005). 
 The design and implementation of FFTW3.
 https://doi.org/10.1109/JPROC.2004.840301

 Hartwigsen, C; Goedecker, S; Hutter, J. 
 PHYSICAL REVIEW B, 58 (7), 3641-3662 (1998). 
 Relativistic separable dual-space Gaussian pseudopotentials from H to Rn.
 https://doi.org/10.1103/PhysRevB.58.3641

 Lippert, G; Hutter, J; Parrinello, M. 
 MOLECULAR PHYSICS, 92 (3), 477-487 (1997). 
 A hybrid Gaussian and plane wave density functional scheme.
 https://doi.org/10.1080/002689797170220

 Goedecker, S; Teter, M; Hutter, J. 
 PHYSICAL REVIEW B, 54 (3), 1703-1710 (1996). 
 Separable dual-space Gaussian pseudopotentials.
 https://doi.org/10.1103/PhysRevB.54.1703


 -------------------------------------------------------------------------------
 -                                                                             -
 -                                T I M I N G                                  -
 -                                                                             -
 -------------------------------------------------------------------------------
 SUBROUTINE                       CALLS  ASD         SELF TIME        TOTAL TIME
                                MAXIMUM       AVERAGE  MAXIMUM  AVERAGE  MAXIMUM
 CP2K                                 1  1.0     0.02     0.12 18611.76 18611.92
 qs_energies                          1  2.0     0.00     0.01 18610.72 18610.90
 mp2_main                             1  3.0     0.00     0.06 18464.48 18464.66
 mp2_gpw_main                         1  4.0     0.00     0.01 18462.31 18462.48
 rpa_ri_compute_en                    1  5.0     0.00     0.00 16624.76 16624.92
 rpa_num_int                          1  6.0     0.01     0.37 16254.04 16254.20
 rpa_num_int_RPA_matrix_operati      10  7.0     0.00     0.00 10038.98 10039.07
 invert_eps_compute_W_and_Erpa_      10  8.0     0.00     0.00 10038.94 10039.03
 compute_Q_kp_RPA                   260  9.0     0.28     0.36  7741.14  7742.70
 cp_cfm_power                       312  9.7     0.50     0.56  7688.67  7689.90
 cp_cfm_heevd                       441 10.2  7011.47  7016.41  7011.47  7016.41
 dbt_total                         1907  9.8     0.01     0.02  5323.66  5323.71
 dbt_contract                       765 11.0     0.05     0.06  4913.54  4915.48
 dbt_tas_total                     1206 13.4    13.87    18.47  4867.27  4867.31
 dbt_tas_multiply                  1065 12.8     0.00     0.01  4863.67  4863.71
 parallel_gemm_cfm                 4194 10.2     0.01     0.01  4390.77  4400.04
 parallel_gemm_cfm_cosma           4194 11.2  4390.76  4400.03  4390.76  4400.03
 dbt_tas_dbm                       1065 14.8     0.00     0.00  3634.65  3634.69
 compute_QP_energies                  1  7.0     0.00     0.01  3451.16  3451.19
 compute_self_energy_cubic_gw_k       1  8.0     0.07     0.09  3450.97  3451.03
 dbm_multiply                      1065 16.8  2372.75  3241.74  2372.75  3241.74
 compute_mat_P_omega                  1  7.0     0.00     0.01  2758.27  2758.30
 compute_mat_P_omega_contract        10  8.0     1.85     2.37  2739.66  2739.69
 dbt_tas_mm_2                       289 15.0     0.00     0.00  2335.34  2335.36
 mp_sync                           9390 12.7  1558.44  2112.93  1558.44  2112.93
 compute_mat_P_omega_calc_P_t        90  9.0     0.00     0.00  1896.73  1896.75
 compute_Wc_real_space_tau_GW       260  9.0     0.00     0.00  1887.83  1888.94
 mp2_ri_gpw_compute_in                1  5.0     0.00     0.06  1837.52  1837.54
 get_2c_integrals                     1  6.0     0.00     0.02  1792.79  1792.81
 inversion_of_M_and_mult_with_c       1  7.0     0.00     0.01  1542.37  1542.39
 tensor_operation_3c_W               99  9.0     0.00     0.00  1309.11  1309.51
 contract_to_self_energy            198  9.0     0.00     0.01  1284.56  1285.30
 compute_Wc_real_space_tau_GW_3     260 10.0     0.00     0.00  1264.82  1270.07
 trafo_to_mo_and_kpoints             21  9.0     0.23     0.27   808.46   808.75
 dbt_tas_mm_3N                      198 16.5     0.00     0.00   577.68   799.19
 mp_waitall_2                      5446 16.6   650.19   729.82   650.19   729.82
 compute_Wc_real_space_tau_GW_2     260 10.0     0.04     0.04   608.67   611.55
 cp_cfm_cholesky_invert             260 11.0   602.79   604.30   602.79   604.30
 dbm_redistribute                  2094 15.5   419.34   529.54   419.34   529.54
 dbt_tas_replicate                  928 15.0    24.14    70.18   444.67   459.76
 dbt_tas_communicate_buffer        1955 17.3     0.43     0.70   431.04   449.48
 compute_mat_P_omega_calc_M_occ      90  9.0     1.86     2.38   424.18   424.18
 convert_to_new_pgrid              3195 14.8    36.38    99.09   334.54   416.47
 dbt_tas_replicate_communicate_     717 16.3     0.09     0.16   399.57   414.77
 mp_isend_dv                     831517 16.8    54.29   402.14    54.29   402.14
 get_bandstruc_and_k_dependent_       1  6.0     0.00     0.00   370.71   370.72
 create_kp_and_calc_kp_orbitals       3  7.0     0.00     0.02   370.71   370.72
 dbt_copy                           949 10.8     0.09     0.11   314.33   363.53
 dbt_reshape                        929 11.8    29.02    33.08   312.49   361.68
 cp_cfm_geeig                       129  8.0     0.00     0.00   323.60   324.05
 dbt_communicate_buffer             929 12.8     0.23     0.26   274.54   322.46
 cp_cfm_cholesky_decompose          389  9.7   310.65   310.87   310.65   310.87
 cholesky_decomp_Q                  260  9.0     0.33     0.40   306.86   308.41
 copy_dbcsr_to_fm                  3888 10.4     0.06     0.07   269.72   302.93
 real_space_to_kpoint_transform      37  9.8     2.16     4.04   243.37   243.43
 dbcsr_new_transposed              7504 10.8     0.35     0.77   240.54   241.41
 dbcsr_redistribute                7448 11.9     1.34     2.60   240.11   241.09
 dbt_tas_mm_3T                      396 16.5     0.00     0.00   209.92   231.62
 compute_V_by_lattice_sum             1  7.0     0.00     0.02   231.43   231.44
 build_2c_coulomb_matrix_kp           2  8.0     0.00     0.00   104.67   226.59
 lattice_sum                          2  9.0     3.83     8.86   104.67   226.59
 mp_alltoall_d11v                 46537 12.9   193.30   225.10   193.30   225.10
 dbcsr_desymmetrize_deep           3948 11.4     0.34     0.54   188.19   222.08
 mp_alltoall_i22                  15475 12.6   172.55   219.16   172.55   219.16
 compute_v_transl                 13312 10.0    99.94   217.45   100.74   219.00
 compute_mat_P_omega_calc_M_vir      90  9.0     0.00     0.00   199.26   199.26
 mp_alltoall_i11v                 38529 12.7   156.52   187.28   156.52   187.28
 -------------------------------------------------------------------------------

 The number of warnings for this run is : 3
 
 -------------------------------------------------------------------------------
  **** **** ******  **  PROGRAM ENDED AT                 2023-06-01 09:34:05.685
 ***** ** ***  *** **   PROGRAM RAN ON                                  n2cn0245
 **    ****   ******    PROGRAM RAN BY                                  eprop2d1
 ***** **    ** ** **   PROGRAM PROCESS ID                               1231153
  **** **  *******  **  PROGRAM STOPPED IN /scratch/hpc-prf-eprop2d/eprop2d1_Jan
                                           /02_MoS2_MoSe2_WS2_WSe2/2_MoSe2/10x10
                                           _PBE/06_reg_RI_1e-2_TZVP_gap_huge_RI
