 DBCSR| CPU Multiplication driver                                           BLAS
 DBCSR| Multrec recursion limit                                              512
 DBCSR| Multiplication stack size                                           1000
 DBCSR| Maximum elements for images                                    UNLIMITED
 DBCSR| Multiplicative factor virtual images                                   1
 DBCSR| Use multiplication densification                                       T
 DBCSR| Multiplication size stacks                                             3
 DBCSR| Use memory pool for CPU allocation                                     F
 DBCSR| Number of 3D layers                                               SINGLE
 DBCSR| Use MPI memory allocation                                              F
 DBCSR| Use RMA algorithm                                                      F
 DBCSR| Use Communication thread                                               T
 DBCSR| Communication thread load                                             83
 DBCSR| MPI: My node id                                                        0
 DBCSR| MPI: Number of nodes                                                 672
 DBCSR| OMP: Current number of threads                                         2
 DBCSR| OMP: Max number of threads                                             2
 DBCSR| Split modifier for TAS multiplication algorithm                  1.0E+00


  **** **** ******  **  PROGRAM STARTED AT               2023-03-09 02:55:52.740
 ***** ** ***  *** **   PROGRAM STARTED ON                          f01r01c01s03
 **    ****   ******    PROGRAM STARTED BY                               di76zil
 ***** **    ** ** **   PROGRAM PROCESS ID                               1907705
  **** **  *******  **  PROGRAM STARTED IN /hppfs/work/pn72pa/di76zil/11_2D_peri
                                           odic_materials/10_clean_WSe2/13x13/2_
                                           RI-3_RI_reg_1e-2

 CP2K| version string:                 CP2K version 2022.1 (Development Version)
 CP2K| source code revision number:                                  git:8dddc57
 CP2K| cp2kflags: omp libint fftw3 parallel mpi3 scalapack mkl                  
 CP2K| is freely available from                            https://www.cp2k.org/
 CP2K| Program compiled at                       Sun 01 Jan 2023 12:35:48 PM CET
 CP2K| Program compiled on                                               login01
 CP2K| Program compiled for                       supermuc_jw_intel19_2022_04_11
 CP2K| Data directory path    /hppfs/work/pn72pa/di76zil/23_compilation/50_as_49
 CP2K| Input file name                                            Geo_MoS2_V.inp
 
 GLOBAL| Force Environment number                                              1
 GLOBAL| Basis set file name                                        BASIS_MOLOPT
 GLOBAL| Potential file name                                      GTH_POTENTIALS
 GLOBAL| MM Potential file name                                     MM_POTENTIAL
 GLOBAL| Coordinate file name                                      __STD_INPUT__
 GLOBAL| Method name                                                        CP2K
 GLOBAL| Project name                                                       MoS2
 GLOBAL| Run type                                                         ENERGY
 GLOBAL| FFT library                                                       FFTW3
 GLOBAL| Diagonalization library                                       ScaLAPACK
 GLOBAL| DGEMM library                                                      BLAS
 GLOBAL| Orthonormality check for eigenvectors                          DISABLED
 GLOBAL| Matrix multiplication library                                 ScaLAPACK
 GLOBAL| All-to-all communication in single precision                          F
 GLOBAL| FFTs using library dependent lengths                                  F
 GLOBAL| Grid backend                                                       AUTO
 GLOBAL| Global print level                                               MEDIUM
 GLOBAL| MPI I/O enabled                                                       T
 GLOBAL| Total number of message passing processes                           672
 GLOBAL| Number of threads for this process                                    2
 GLOBAL| This output is from process                                           0
 GLOBAL| Stack size for threads created by OpenMP (OMP_STACKSIZE)          2000m
 GLOBAL| CPU model name             Intel(R) Xeon(R) Platinum 8174 CPU @ 3.10GHz

 MEMORY| system memory details [Kb]
 MEMORY|                        rank 0           min           max       average
 MEMORY| MemTotal            792068932     792068880     792069276     792068934
 MEMORY| MemFree             776424740     776424740     776898396     776684041
 MEMORY| Buffers                     0             0             0             0
 MEMORY| Cached                2735236       2729100       2815748       2742797
 MEMORY| Slab                  1029600        974584       1038660       1017180
 MEMORY| SReclaimable           217948        203640        222804        213989
 MEMORY| MemLikelyFree       779377924     779377924     779847040     779640828


 *** Fundamental physical constants (SI units) ***

 *** Literature: B. J. Mohr and B. N. Taylor,
 ***             CODATA recommended values of the fundamental physical
 ***             constants: 2006, Web Version 5.1
 ***             http://physics.nist.gov/constants

 Speed of light in vacuum [m/s]                             2.99792458000000E+08
 Magnetic constant or permeability of vacuum [N/A**2]       1.25663706143592E-06
 Electric constant or permittivity of vacuum [F/m]          8.85418781762039E-12
 Planck constant (h) [J*s]                                  6.62606896000000E-34
 Planck constant (h-bar) [J*s]                              1.05457162825177E-34
 Elementary charge [C]                                      1.60217648700000E-19
 Electron mass [kg]                                         9.10938215000000E-31
 Electron g factor [ ]                                     -2.00231930436220E+00
 Proton mass [kg]                                           1.67262163700000E-27
 Fine-structure constant                                    7.29735253760000E-03
 Rydberg constant [1/m]                                     1.09737315685270E+07
 Avogadro constant [1/mol]                                  6.02214179000000E+23
 Boltzmann constant [J/K]                                   1.38065040000000E-23
 Atomic mass unit [kg]                                      1.66053878200000E-27
 Bohr radius [m]                                            5.29177208590000E-11

 *** Conversion factors ***

 [u] -> [a.u.]                                              1.82288848426455E+03
 [Angstrom] -> [Bohr] = [a.u.]                              1.88972613288564E+00
 [a.u.] = [Bohr] -> [Angstrom]                              5.29177208590000E-01
 [a.u.] -> [s]                                              2.41888432650478E-17
 [a.u.] -> [fs]                                             2.41888432650478E-02
 [a.u.] -> [J]                                              4.35974393937059E-18
 [a.u.] -> [N]                                              8.23872205491840E-08
 [a.u.] -> [K]                                              3.15774647902944E+05
 [a.u.] -> [kJ/mol]                                         2.62549961709828E+03
 [a.u.] -> [kcal/mol]                                       6.27509468713739E+02
 [a.u.] -> [Pa]                                             2.94210107994716E+13
 [a.u.] -> [bar]                                            2.94210107994716E+08
 [a.u.] -> [atm]                                            2.90362800883016E+08
 [a.u.] -> [eV]                                             2.72113838565563E+01
 [a.u.] -> [Hz]                                             6.57968392072181E+15
 [a.u.] -> [1/cm] (wave numbers)                            2.19474631370540E+05
 [a.u./Bohr**2] -> [1/cm]                                   5.14048714338585E+03
 

 CELL_TOP| Volume [angstrom^3]:                                     24183.719680
 CELL_TOP| Vector a [angstrom    43.147     0.000     0.000   |a| =    43.147000
 CELL_TOP| Vector b [angstrom   -21.573    37.366     0.000   |b| =    43.147000
 CELL_TOP| Vector c [angstrom     0.000     0.000    15.000   |c| =    15.000000
 CELL_TOP| Angle (b,c), alpha [degree]:                                90.000000
 CELL_TOP| Angle (a,c), beta  [degree]:                                90.000000
 CELL_TOP| Angle (a,b), gamma [degree]:                               120.000000
 CELL_TOP| Numerically orthorhombic:                                          NO
 CELL_TOP| Periodicity                                                        XY

 CELL_UC| Volume [angstrom^3]:                                        143.098933
 CELL_UC| Vector a [angstrom]     3.319     0.000     0.000   |a| =     3.319000
 CELL_UC| Vector b [angstrom]    -1.659     2.874     0.000   |b| =     3.319000
 CELL_UC| Vector c [angstrom]     0.000     0.000    15.000   |c| =    15.000000
 CELL_UC| Angle (b,c), alpha [degree]:                                 90.000000
 CELL_UC| Angle (a,c), beta  [degree]:                                 90.000000
 CELL_UC| Angle (a,b), gamma [degree]:                                120.000000
 CELL_UC| Numerically orthorhombic:                                           NO
 CELL_UC| Periodicity                                                         XY
 
 GENERATE|  Preliminary Number of Bonds generated:                             0
 GENERATE|  Achieved consistency in connectivity generation.

 CELL| Volume [angstrom^3]:                                         24183.719680
 CELL| Vector a [angstrom]:      43.147     0.000     0.000   |a| =    43.147000
 CELL| Vector b [angstrom]:     -21.573    37.366     0.000   |b| =    43.147000
 CELL| Vector c [angstrom]:       0.000     0.000    15.000   |c| =    15.000000
 CELL| Angle (b,c), alpha [degree]:                                    90.000000
 CELL| Angle (a,c), beta  [degree]:                                    90.000000
 CELL| Angle (a,b), gamma [degree]:                                   120.000000
 CELL| Numerically orthorhombic:                                              NO
 CELL| Periodicity                                                            XY

 CELL_REF| Volume [angstrom^3]:                                     24183.719680
 CELL_REF| Vector a [angstrom    43.147     0.000     0.000   |a| =    43.147000
 CELL_REF| Vector b [angstrom   -21.573    37.366     0.000   |b| =    43.147000
 CELL_REF| Vector c [angstrom     0.000     0.000    15.000   |c| =    15.000000
 CELL_REF| Angle (b,c), alpha [degree]:                                90.000000
 CELL_REF| Angle (a,c), beta  [degree]:                                90.000000
 CELL_REF| Angle (a,b), gamma [degree]:                               120.000000
 CELL_REF| Numerically orthorhombic:                                          NO
 CELL_REF| Periodicity                                                        XY

 *******************************************************************************
 *******************************************************************************
 **                                                                           **
 **     #####                         ##              ##                      **
 **    ##   ##            ##          ##              ##                      **
 **   ##     ##                       ##            ######                    **
 **   ##     ##  ##   ##  ##   #####  ##  ##   ####   ##    #####    #####    **
 **   ##     ##  ##   ##  ##  ##      ## ##   ##      ##   ##   ##  ##   ##   **
 **   ##  ## ##  ##   ##  ##  ##      ####     ###    ##   ######   ######    **
 **    ##  ###   ##   ##  ##  ##      ## ##      ##   ##   ##       ##        **
 **     #######   #####   ##   #####  ##  ##  ####    ##    #####   ##        **
 **           ##                                                    ##        **
 **                                                                           **
 **                                                ... make the atoms dance   **
 **                                                                           **
 **            Copyright (C) by CP2K developers group (2000-2022)             **
 **                      J. Chem. Phys. 152, 194103 (2020)                    **
 **                                                                           **
 *******************************************************************************

 DFT| Spin restricted Kohn-Sham (RKS) calculation                            RKS
 DFT| Multiplicity                                                             1
 DFT| Number of spin states                                                    1
 DFT| Charge                                                                   0
 DFT| Self-interaction correction (SIC)                                       NO
 DFT| Cutoffs: density                                              1.000000E-10
 DFT|          gradient                                             1.000000E-10
 DFT|          tau                                                  1.000000E-10
 DFT|          cutoff_smoothing_range                               0.000000E+00
 DFT| XC density smoothing                                                  NONE
 DFT| XC derivatives                                                          PW

 FUNCTIONAL| PADE:
 FUNCTIONAL| S. Goedecker, M. Teter and J. Hutter, Phys. Rev. B 54, 1703 (1996) 


 QS| Method:                                                                 GPW
 QS| Density plane wave grid type                        NON-SPHERICAL FULLSPACE
 QS| Number of grid levels:                                                    4
 QS| Density cutoff [a.u.]:                                                250.0
 QS| Multi grid cutoff [a.u.]: 1) grid level                               250.0
 QS|                           2) grid level                                83.3
 QS|                           3) grid level                                27.8
 QS|                           4) grid level                                 9.3
 QS| Grid level progression factor:                                          3.0
 QS| Relative density cutoff [a.u.]:                                        50.0
 QS| Interaction thresholds: eps_pgf_orb:                                1.0E-40
 QS|                         eps_filter_matrix:                          0.0E+00
 QS|                         eps_core_charge:                            1.0E-42
 QS|                         eps_rho_gspace:                             1.0E-40
 QS|                         eps_rho_rspace:                             1.0E-40
 QS|                         eps_gvg_rspace:                             1.0E-20
 QS|                         eps_ppl:                                    1.0E-02
 QS|                         eps_ppnl:                                   1.0E-22


 ATOMIC KIND INFORMATION

  1. Atomic kind: W                                     Number of atoms:     169

     Orbital Basis Set                               TZVP-MOLOPT-SR-GTH_robust_1

       Number of orbital shell sets:                                           1
       Number of orbital shells:                                              11
       Number of primitive Cartesian functions:                                7
       Number of Cartesian basis functions:                                   41
       Number of spherical basis functions:                                   35
       Norm type:                                                              2

       Normalised Cartesian orbitals:

                        Set   Shell   Orbital            Exponent    Coefficient

                          1       1    2s                3.103254       0.432128
                                                         2.893835       0.497697
                                                         1.106151      -0.752121
                                                         0.501100      -0.216922
                                                         0.214447       0.032823
                                                         0.120000      -0.061173
                                                         0.140000       0.053490

                          1       2    3s                3.103254      -0.813729
                                                         2.893835       0.639864
                                                         1.106151       0.039972
                                                         0.501100      -0.059528
                                                         0.214447       0.077002
                                                         0.120000       0.481432
                                                         0.140000      -0.420972

                          1       3    4s                3.103254       1.541003
                                                         2.893835      -0.927602
                                                         1.106151      -0.272969
                                                         0.501100       0.064402
                                                         0.214447      -0.275240
                                                         0.120000       0.981259
                                                         0.140000      -0.858027

                          1       4    5s                3.103254       1.221199
                                                         2.893835      -1.384344
                                                         1.106151       0.313815
                                                         0.501100      -0.289021
                                                         0.214447       0.251699
                                                         0.120000       0.180363
                                                         0.140000      -0.157712

                          1       5    3px               3.103254       6.587488
                                                         2.893835      -5.430631
                                                         1.106151      -0.972560
                                                         0.501100      -0.261614
                                                         0.214447      -0.013936
                                                         0.120000       0.008777
                                                         0.140000      -0.008290
                          1       5    3py               3.103254       6.587488
                                                         2.893835      -5.430631
                                                         1.106151      -0.972560
                                                         0.501100      -0.261614
                                                         0.214447      -0.013936
                                                         0.120000       0.008777
                                                         0.140000      -0.008290
                          1       5    3pz               3.103254       6.587488
                                                         2.893835      -5.430631
                                                         1.106151      -0.972560
                                                         0.501100      -0.261614
                                                         0.214447      -0.013936
                                                         0.120000       0.008777
                                                         0.140000      -0.008290

                          1       6    4px               3.103254      -0.215503
                                                         2.893835       0.319008
                                                         1.106151      -0.250093
                                                         0.501100      -0.016350
                                                         0.214447       0.058331
                                                         0.120000       0.336378
                                                         0.140000      -0.317701
                          1       6    4py               3.103254      -0.215503
                                                         2.893835       0.319008
                                                         1.106151      -0.250093
                                                         0.501100      -0.016350
                                                         0.214447       0.058331
                                                         0.120000       0.336378
                                                         0.140000      -0.317701
                          1       6    4pz               3.103254      -0.215503
                                                         2.893835       0.319008
                                                         1.106151      -0.250093
                                                         0.501100      -0.016350
                                                         0.214447       0.058331
                                                         0.120000       0.336378
                                                         0.140000      -0.317701

                          1       7    5px               3.103254       1.477813
                                                         2.893835      -1.135541
                                                         1.106151       1.380857
                                                         0.501100       0.146858
                                                         0.214447      -0.336829
                                                         0.120000       0.360608
                                                         0.140000      -0.340586
                          1       7    5py               3.103254       1.477813
                                                         2.893835      -1.135541
                                                         1.106151       1.380857
                                                         0.501100       0.146858
                                                         0.214447      -0.336829
                                                         0.120000       0.360608
                                                         0.140000      -0.340586
                          1       7    5pz               3.103254       1.477813
                                                         2.893835      -1.135541
                                                         1.106151       1.380857
                                                         0.501100       0.146858
                                                         0.214447      -0.336829
                                                         0.120000       0.360608
                                                         0.140000      -0.340586

                          1       8    4dx2              3.103254      -0.073730
                                                         2.893835       0.215072
                                                         1.106151       0.648029
                                                         0.501100       0.200612
                                                         0.214447       0.032511
                                                         0.120000       0.039404
                                                         0.140000      -0.040198
                          1       8    4dxy              3.103254      -0.127705
                                                         2.893835       0.372516
                                                         1.106151       1.122419
                                                         0.501100       0.347470
                                                         0.214447       0.056311
                                                         0.120000       0.068250
                                                         0.140000      -0.069626
                          1       8    4dxz              3.103254      -0.127705
                                                         2.893835       0.372516
                                                         1.106151       1.122419
                                                         0.501100       0.347470
                                                         0.214447       0.056311
                                                         0.120000       0.068250
                                                         0.140000      -0.069626
                          1       8    4dy2              3.103254      -0.073730
                                                         2.893835       0.215072
                                                         1.106151       0.648029
                                                         0.501100       0.200612
                                                         0.214447       0.032511
                                                         0.120000       0.039404
                                                         0.140000      -0.040198
                          1       8    4dyz              3.103254      -0.127705
                                                         2.893835       0.372516
                                                         1.106151       1.122419
                                                         0.501100       0.347470
                                                         0.214447       0.056311
                                                         0.120000       0.068250
                                                         0.140000      -0.069626
                          1       8    4dz2              3.103254      -0.073730
                                                         2.893835       0.215072
                                                         1.106151       0.648029
                                                         0.501100       0.200612
                                                         0.214447       0.032511
                                                         0.120000       0.039404
                                                         0.140000      -0.040198

                          1       9    5dx2              3.103254       0.120212
                                                         2.893835      -0.247034
                                                         1.106151      -0.585668
                                                         0.501100      -0.200109
                                                         0.214447       0.050368
                                                         0.120000       0.106563
                                                         0.140000      -0.108711
                          1       9    5dxy              3.103254       0.208214
                                                         2.893835      -0.427875
                                                         1.106151      -1.014406
                                                         0.501100      -0.346599
                                                         0.214447       0.087239
                                                         0.120000       0.184573
                                                         0.140000      -0.188293
                          1       9    5dxz              3.103254       0.208214
                                                         2.893835      -0.427875
                                                         1.106151      -1.014406
                                                         0.501100      -0.346599
                                                         0.214447       0.087239
                                                         0.120000       0.184573
                                                         0.140000      -0.188293
                          1       9    5dy2              3.103254       0.120212
                                                         2.893835      -0.247034
                                                         1.106151      -0.585668
                                                         0.501100      -0.200109
                                                         0.214447       0.050368
                                                         0.120000       0.106563
                                                         0.140000      -0.108711
                          1       9    5dyz              3.103254       0.208214
                                                         2.893835      -0.427875
                                                         1.106151      -1.014406
                                                         0.501100      -0.346599
                                                         0.214447       0.087239
                                                         0.120000       0.184573
                                                         0.140000      -0.188293
                          1       9    5dz2              3.103254       0.120212
                                                         2.893835      -0.247034
                                                         1.106151      -0.585668
                                                         0.501100      -0.200109
                                                         0.214447       0.050368
                                                         0.120000       0.106563
                                                         0.140000      -0.108711

                          1      10    6dx2              3.103254      10.228451
                                                         2.893835     -10.154808
                                                         1.106151       0.833144
                                                         0.501100      -0.004804
                                                         0.214447      -0.129172
                                                         0.120000       0.182950
                                                         0.140000      -0.186637
                          1      10    6dxy              3.103254      17.716196
                                                         2.893835     -17.588644
                                                         1.106151       1.443047
                                                         0.501100      -0.008321
                                                         0.214447      -0.223732
                                                         0.120000       0.316879
                                                         0.140000      -0.323264
                          1      10    6dxz              3.103254      17.716196
                                                         2.893835     -17.588644
                                                         1.106151       1.443047
                                                         0.501100      -0.008321
                                                         0.214447      -0.223732
                                                         0.120000       0.316879
                                                         0.140000      -0.323264
                          1      10    6dy2              3.103254      10.228451
                                                         2.893835     -10.154808
                                                         1.106151       0.833144
                                                         0.501100      -0.004804
                                                         0.214447      -0.129172
                                                         0.120000       0.182950
                                                         0.140000      -0.186637
                          1      10    6dyz              3.103254      17.716196
                                                         2.893835     -17.588644
                                                         1.106151       1.443047
                                                         0.501100      -0.008321
                                                         0.214447      -0.223732
                                                         0.120000       0.316879
                                                         0.140000      -0.323264
                          1      10    6dz2              3.103254      10.228451
                                                         2.893835     -10.154808
                                                         1.106151       0.833144
                                                         0.501100      -0.004804
                                                         0.214447      -0.129172
                                                         0.120000       0.182950
                                                         0.140000      -0.186637

                          1      11    5fx3              3.103254      -2.200951
                                                         2.893835       2.432659
                                                         1.106151      -0.371072
                                                         0.501100      -0.177479
                                                         0.214447      -0.017113
                                                         0.120000      -0.003108
                                                         0.140000       0.003424
                          1      11    5fx2y             3.103254      -4.921477
                                                         2.893835       5.439590
                                                         1.106151      -0.829742
                                                         0.501100      -0.396854
                                                         0.214447      -0.038265
                                                         0.120000      -0.006949
                                                         0.140000       0.007657
                          1      11    5fx2z             3.103254      -4.921477
                                                         2.893835       5.439590
                                                         1.106151      -0.829742
                                                         0.501100      -0.396854
                                                         0.214447      -0.038265
                                                         0.120000      -0.006949
                                                         0.140000       0.007657
                          1      11    5fxy2             3.103254      -4.921477
                                                         2.893835       5.439590
                                                         1.106151      -0.829742
                                                         0.501100      -0.396854
                                                         0.214447      -0.038265
                                                         0.120000      -0.006949
                                                         0.140000       0.007657
                          1      11    5fxyz             3.103254      -8.524248
                                                         2.893835       9.421647
                                                         1.106151      -1.437155
                                                         0.501100      -0.687372
                                                         0.214447      -0.066277
                                                         0.120000      -0.012036
                                                         0.140000       0.013263
                          1      11    5fxz2             3.103254      -4.921477
                                                         2.893835       5.439590
                                                         1.106151      -0.829742
                                                         0.501100      -0.396854
                                                         0.214447      -0.038265
                                                         0.120000      -0.006949
                                                         0.140000       0.007657
                          1      11    5fy3              3.103254      -2.200951
                                                         2.893835       2.432659
                                                         1.106151      -0.371072
                                                         0.501100      -0.177479
                                                         0.214447      -0.017113
                                                         0.120000      -0.003108
                                                         0.140000       0.003424
                          1      11    5fy2z             3.103254      -4.921477
                                                         2.893835       5.439590
                                                         1.106151      -0.829742
                                                         0.501100      -0.396854
                                                         0.214447      -0.038265
                                                         0.120000      -0.006949
                                                         0.140000       0.007657
                          1      11    5fyz2             3.103254      -4.921477
                                                         2.893835       5.439590
                                                         1.106151      -0.829742
                                                         0.501100      -0.396854
                                                         0.214447      -0.038265
                                                         0.120000      -0.006949
                                                         0.140000       0.007657
                          1      11    5fz3              3.103254      -2.200951
                                                         2.893835       2.432659
                                                         1.106151      -0.371072
                                                         0.501100      -0.177479
                                                         0.214447      -0.017113
                                                         0.120000      -0.003108
                                                         0.140000       0.003424

     RI Auxiliary Basis Set                                 def2-SVP-RIFIT-mod-3

       Number of orbital shell sets:                                          16
       Number of orbital shells:                                              16
       Number of primitive Cartesian functions:                               16
       Number of Cartesian basis functions:                                   88
       Number of spherical basis functions:                                   66
       Norm type:                                                              2

       Normalised Cartesian orbitals:

                        Set   Shell   Orbital            Exponent    Coefficient

                          1       1    1s                0.238675       0.243369

                          2       1    1fx3              0.253216       0.066959
                          2       1    1fx2y             0.253216       0.149725
                          2       1    1fx2z             0.253216       0.149725
                          2       1    1fxy2             0.253216       0.149725
                          2       1    1fxyz             0.253216       0.259331
                          2       1    1fxz2             0.253216       0.149725
                          2       1    1fy3              0.253216       0.066959
                          2       1    1fy2z             0.253216       0.149725
                          2       1    1fyz2             0.253216       0.149725
                          2       1    1fz3              0.253216       0.066959

                          3       1    1px               0.269126       0.276302
                          3       1    1py               0.269126       0.276302
                          3       1    1pz               0.269126       0.276302

                          4       1    1dx2              0.304026       0.204882
                          4       1    1dxy              0.304026       0.354866
                          4       1    1dxz              0.304026       0.354866
                          4       1    1dy2              0.304026       0.204882
                          4       1    1dyz              0.304026       0.354866
                          4       1    1dz2              0.304026       0.204882

                          5       1    1gx4              0.365033       0.069638
                          5       1    1gx3y             0.365033       0.184246
                          5       1    1gx3z             0.365033       0.184246
                          5       1    1gx2y2            0.365033       0.237860
                          5       1    1gx2yz            0.365033       0.411986
                          5       1    1gx2z2            0.365033       0.237860
                          5       1    1gxy3             0.365033       0.184246
                          5       1    1gxy2z            0.365033       0.411986
                          5       1    1gxyz2            0.365033       0.411986
                          5       1    1gxz3             0.365033       0.184246
                          5       1    1gy4              0.365033       0.069638
                          5       1    1gy3z             0.365033       0.184246
                          5       1    1gy2z2            0.365033       0.237860
                          5       1    1gyz3             0.365033       0.184246
                          5       1    1gz4              0.365033       0.069638

                          6       1    1s                0.424638       0.374908

                          7       1    1s                0.648984       0.515330

                          8       1    1dx2              0.719090       0.924230
                          8       1    1dxy              0.719090       1.600814
                          8       1    1dxz              0.719090       1.600814
                          8       1    1dy2              0.719090       0.924230
                          8       1    1dyz              0.719090       1.600814
                          8       1    1dz2              0.719090       0.924230

                          9       1    1gx4              0.914481       0.870294
                          9       1    1gx3y             0.914481       2.302581
                          9       1    1gx3z             0.914481       2.302581
                          9       1    1gx2y2            0.914481       2.972619
                          9       1    1gx2yz            0.914481       5.148727
                          9       1    1gx2z2            0.914481       2.972619
                          9       1    1gxy3             0.914481       2.302581
                          9       1    1gxy2z            0.914481       5.148727
                          9       1    1gxyz2            0.914481       5.148727
                          9       1    1gxz3             0.914481       2.302581
                          9       1    1gy4              0.914481       0.870294
                          9       1    1gy3z             0.914481       2.302581
                          9       1    1gy2z2            0.914481       2.972619
                          9       1    1gyz3             0.914481       2.302581
                          9       1    1gz4              0.914481       0.870294

                         10       1    1px               0.967490       1.367723
                         10       1    1py               0.967490       1.367723
                         10       1    1pz               0.967490       1.367723

                         11       1    1dx2              1.179750       2.198072
                         11       1    1dxy              1.179750       3.807173
                         11       1    1dxz              1.179750       3.807173
                         11       1    1dy2              1.179750       2.198072
                         11       1    1dyz              1.179750       3.807173
                         11       1    1dz2              1.179750       2.198072

                         12       1    1fx3              1.281070       2.570357
                         12       1    1fx2y             1.281070       5.747492
                         12       1    1fx2z             1.281070       5.747492
                         12       1    1fxy2             1.281070       5.747492
                         12       1    1fxyz             1.281070       9.954948
                         12       1    1fxz2             1.281070       5.747492
                         12       1    1fy3              1.281070       2.570357
                         12       1    1fy2z             1.281070       5.747492
                         12       1    1fyz2             1.281070       5.747492
                         12       1    1fz3              1.281070       2.570357

                         13       1    1s                1.466370       0.949714

                         14       1    1px               1.939290       3.262072
                         14       1    1py               1.939290       3.262072
                         14       1    1pz               1.939290       3.262072

                         15       1    1s                2.101910       1.244144

                         16       1    1dx2              2.484170       8.090526
                         16       1    1dxy              2.484170      14.013202
                         16       1    1dxz              2.484170      14.013202
                         16       1    1dy2              2.484170       8.090526
                         16       1    1dyz              2.484170      14.013202
                         16       1    1dz2              2.484170       8.090526

       Atomic covalent radius [Angstrom]:                                  1.300

       Atomic van der Waals radius [Angstrom]:                             1.670

     GTH Potential information for                                  GTH-PADE-q14

       Description:                       Goedecker-Teter-Hutter pseudopotential
                                           Goedecker et al., PRB 54, 1703 (1996)
                                          Hartwigsen et al., PRB 58, 3641 (1998)
                                                      Krack, TCA 114, 145 (2005)

       Gaussian exponent of the core charge distribution:               1.714678
       Electronic configuration (s p d ...):                           4   6   4

       Parameters of the local part of the GTH pseudopotential:

                          rloc        C1          C2          C3          C4
                        0.540000    4.800251    0.901544

       Parameters of the non-local part of the GTH pseudopotential:

                   l      r(l)      h(i,j,l)

                   0    0.418570    2.692204    2.332557    0.297239
                                    2.332557   -6.022638   -0.767467
                                    0.297239   -0.767467    1.218316
                   1    0.449555   -0.702084    1.036024
                                    1.036024   -2.451680
                   2    0.399602    1.177436    2.448917
                                    2.448917   -5.553621

  2. Atomic kind: Se                                    Number of atoms:     338

     Orbital Basis Set                                        TZVP-MOLOPT-SR-GTH

       Number of orbital shell sets:                                           1
       Number of orbital shells:                                               7
       Number of primitive Cartesian functions:                                4
       Number of Cartesian basis functions:                                   18
       Number of spherical basis functions:                                   17
       Norm type:                                                              2

       Normalised Cartesian orbitals:

                        Set   Shell   Orbital            Exponent    Coefficient

                          1       1    2s                1.465689       0.302678
                                                         1.029752      -0.073168
                                                         0.303575      -0.202711
                                                         0.107173      -0.059713

                          1       2    3s                1.465689      -0.155491
                                                         1.029752       0.241663
                                                         0.303575      -0.363851
                                                         0.107173       0.233571

                          1       3    4s                1.465689       1.273873
                                                         1.029752      -0.825574
                                                         0.303575       0.111847
                                                         0.107173       0.081995

                          1       4    3px               1.465689       0.612976
                                                         1.029752      -0.484874
                                                         0.303575      -0.234718
                                                         0.107173      -0.021524
                          1       4    3py               1.465689       0.612976
                                                         1.029752      -0.484874
                                                         0.303575      -0.234718
                                                         0.107173      -0.021524
                          1       4    3pz               1.465689       0.612976
                                                         1.029752      -0.484874
                                                         0.303575      -0.234718
                                                         0.107173      -0.021524

                          1       5    4px               1.465689       0.383325
                                                         1.029752      -0.329453
                                                         0.303575      -0.075164
                                                         0.107173       0.102417
                          1       5    4py               1.465689       0.383325
                                                         1.029752      -0.329453
                                                         0.303575      -0.075164
                                                         0.107173       0.102417
                          1       5    4pz               1.465689       0.383325
                                                         1.029752      -0.329453
                                                         0.303575      -0.075164
                                                         0.107173       0.102417

                          1       6    5px               1.465689       3.760520
                                                         1.029752      -2.704359
                                                         0.303575       0.485527
                                                         0.107173      -0.024362
                          1       6    5py               1.465689       3.760520
                                                         1.029752      -2.704359
                                                         0.303575       0.485527
                                                         0.107173      -0.024362
                          1       6    5pz               1.465689       3.760520
                                                         1.029752      -2.704359
                                                         0.303575       0.485527
                                                         0.107173      -0.024362

                          1       7    4dx2              1.465689       0.513111
                                                         1.029752      -0.664167
                                                         0.303575      -0.134856
                                                         0.107173      -0.008700
                          1       7    4dxy              1.465689       0.888735
                                                         1.029752      -1.150371
                                                         0.303575      -0.233577
                                                         0.107173      -0.015069
                          1       7    4dxz              1.465689       0.888735
                                                         1.029752      -1.150371
                                                         0.303575      -0.233577
                                                         0.107173      -0.015069
                          1       7    4dy2              1.465689       0.513111
                                                         1.029752      -0.664167
                                                         0.303575      -0.134856
                                                         0.107173      -0.008700
                          1       7    4dyz              1.465689       0.888735
                                                         1.029752      -1.150371
                                                         0.303575      -0.233577
                                                         0.107173      -0.015069
                          1       7    4dz2              1.465689       0.513111
                                                         1.029752      -0.664167
                                                         0.303575      -0.134856
                                                         0.107173      -0.008700

     RI Auxiliary Basis Set                                 def2-SVP-RIFIT-mod-3

       Number of orbital shell sets:                                          12
       Number of orbital shells:                                              12
       Number of primitive Cartesian functions:                               12
       Number of Cartesian basis functions:                                   44
       Number of spherical basis functions:                                   38
       Norm type:                                                              2

       Normalised Cartesian orbitals:

                        Set   Shell   Orbital            Exponent    Coefficient

                          1       1    1s                0.228146       0.235272

                          2       1    1dx2              0.255873       0.151514
                          2       1    1dxy              0.255873       0.262430
                          2       1    1dxz              0.255873       0.262430
                          2       1    1dy2              0.255873       0.151514
                          2       1    1dyz              0.255873       0.262430
                          2       1    1dz2              0.255873       0.151514

                          3       1    1px               0.271607       0.279490
                          3       1    1py               0.271607       0.279490
                          3       1    1pz               0.271607       0.279490

                          4       1    1s                0.368618       0.337165

                          5       1    1dx2              0.492940       0.477308
                          5       1    1dxy              0.492940       0.826723
                          5       1    1dxz              0.492940       0.826723
                          5       1    1dy2              0.492940       0.477308
                          5       1    1dyz              0.492940       0.826723
                          5       1    1dz2              0.492940       0.477308

                          6       1    1px               0.522961       0.633908
                          6       1    1py               0.522961       0.633908
                          6       1    1pz               0.522961       0.633908

                          7       1    1s                0.572587       0.469128

                          8       1    1fx3              0.711060       0.683508
                          8       1    1fx2y             0.711060       1.528371
                          8       1    1fx2z             0.711060       1.528371
                          8       1    1fxy2             0.711060       1.528371
                          8       1    1fxyz             0.711060       2.647216
                          8       1    1fxz2             0.711060       1.528371
                          8       1    1fy3              0.711060       0.683508
                          8       1    1fy2z             0.711060       1.528371
                          8       1    1fyz2             0.711060       1.528371
                          8       1    1fz3              0.711060       0.683508

                          9       1    1px               1.002555       1.429965
                          9       1    1py               1.002555       1.429965
                          9       1    1pz               1.002555       1.429965

                         10       1    1dx2              1.339632       2.745579
                         10       1    1dxy              1.339632       4.755483
                         10       1    1dxz              1.339632       4.755483
                         10       1    1dy2              1.339632       2.745579
                         10       1    1dyz              1.339632       4.755483
                         10       1    1dz2              1.339632       2.745579

                         11       1    1px               1.705131       2.777392
                         11       1    1py               1.705131       2.777392
                         11       1    1pz               1.705131       2.777392

                         12       1    1s                2.077977       1.233504

       Atomic covalent radius [Angstrom]:                                  1.160

       Atomic van der Waals radius [Angstrom]:                             1.900

     GTH Potential information for                                   GTH-PADE-q6

       Description:                       Goedecker-Teter-Hutter pseudopotential
                                           Goedecker et al., PRB 54, 1703 (1996)
                                          Hartwigsen et al., PRB 58, 3641 (1998)
                                                      Krack, TCA 114, 145 (2005)

       Gaussian exponent of the core charge distribution:               1.922338
       Electronic configuration (s p d ...):                               2   4

       Parameters of the local part of the GTH pseudopotential:

                          rloc        C1          C2          C3          C4
                        0.510000

       Parameters of the non-local part of the GTH pseudopotential:

                   l      r(l)      h(i,j,l)

                   0    0.432531    5.145131   -0.794740   -0.334051
                                   -0.794740    2.052009    0.862517
                                   -0.334051    0.862517   -1.369203
                   1    0.472473    2.858806    0.249604
                                    0.249604   -0.590670
                   2    0.613420    0.434829


 MOLECULE KIND INFORMATION


 All atoms are their own molecule, skipping detailed information


 TOTAL NUMBERS AND MAXIMUM NUMBERS

  Total number of            - Atomic kinds:                                   2
                             - Atoms:                                        507
                             - Shell sets:                                   507
                             - Shells:                                      4225
                             - Primitive Cartesian functions:               2535
                             - Cartesian basis functions:                  13013
                             - Spherical basis functions:                  11661

  Maximum angular momentum of- Orbital basis functions:                        3
                             - Local part of the GTH pseudopotential:          2
                             - Non-local part of the GTH pseudopotential:      4


 MODULE QUICKSTEP: ATOMIC COORDINATES IN ANGSTROM

   Atom Kind Element         X             Y             Z       Z(eff)     Mass
      1    1 W    74      0.000000      0.000000      2.179276  14.0000 183.8400
      2    2 Se   34      1.659503      0.958115      3.858553   6.0000  78.9600
      3    2 Se   34      1.659503      0.958115      0.500000   6.0000  78.9600
      4    1 W    74      3.319000      0.000000      2.179276  14.0000 183.8400
      5    2 Se   34      4.978503      0.958115      3.858553   6.0000  78.9600
      6    2 Se   34      4.978503      0.958115      0.500000   6.0000  78.9600
      7    1 W    74      6.638000      0.000000      2.179276  14.0000 183.8400
      8    2 Se   34      8.297503      0.958115      3.858553   6.0000  78.9600
      9    2 Se   34      8.297503      0.958115      0.500000   6.0000  78.9600
     10    1 W    74      9.957000      0.000000      2.179276  14.0000 183.8400
     11    2 Se   34     11.616503      0.958115      3.858553   6.0000  78.9600
     12    2 Se   34     11.616503      0.958115      0.500000   6.0000  78.9600
     13    1 W    74     13.276000      0.000000      2.179276  14.0000 183.8400
     14    2 Se   34     14.935503      0.958115      3.858553   6.0000  78.9600
     15    2 Se   34     14.935503      0.958115      0.500000   6.0000  78.9600
     16    1 W    74     16.595000      0.000000      2.179276  14.0000 183.8400
     17    2 Se   34     18.254503      0.958115      3.858553   6.0000  78.9600
     18    2 Se   34     18.254503      0.958115      0.500000   6.0000  78.9600
     19    1 W    74     19.914000      0.000000      2.179276  14.0000 183.8400
     20    2 Se   34     21.573503      0.958115      3.858553   6.0000  78.9600
     21    2 Se   34     21.573503      0.958115      0.500000   6.0000  78.9600
     22    1 W    74     23.233000      0.000000      2.179276  14.0000 183.8400
     23    2 Se   34     24.892503      0.958115      3.858553   6.0000  78.9600
     24    2 Se   34     24.892503      0.958115      0.500000   6.0000  78.9600
     25    1 W    74     26.552000      0.000000      2.179276  14.0000 183.8400
     26    2 Se   34     28.211503      0.958115      3.858553   6.0000  78.9600
     27    2 Se   34     28.211503      0.958115      0.500000   6.0000  78.9600
     28    1 W    74     29.871000      0.000000      2.179276  14.0000 183.8400
     29    2 Se   34     31.530503      0.958115      3.858553   6.0000  78.9600
     30    2 Se   34     31.530503      0.958115      0.500000   6.0000  78.9600
     31    1 W    74     33.190000      0.000000      2.179276  14.0000 183.8400
     32    2 Se   34     34.849503      0.958115      3.858553   6.0000  78.9600
     33    2 Se   34     34.849503      0.958115      0.500000   6.0000  78.9600
     34    1 W    74     36.509000      0.000000      2.179276  14.0000 183.8400
     35    2 Se   34     38.168503      0.958115      3.858553   6.0000  78.9600
     36    2 Se   34     38.168503      0.958115      0.500000   6.0000  78.9600
     37    1 W    74     39.828000      0.000000      2.179276  14.0000 183.8400
     38    2 Se   34     41.487503      0.958115      3.858553   6.0000  78.9600
     39    2 Se   34     41.487503      0.958115      0.500000   6.0000  78.9600
     40    1 W    74     -1.659500      2.874338      2.179276  14.0000 183.8400
     41    2 Se   34      0.000003      3.832453      3.858553   6.0000  78.9600
     42    2 Se   34      0.000003      3.832453      0.500000   6.0000  78.9600
     43    1 W    74      1.659500      2.874338      2.179276  14.0000 183.8400
     44    2 Se   34      3.319003      3.832453      3.858553   6.0000  78.9600
     45    2 Se   34      3.319003      3.832453      0.500000   6.0000  78.9600
     46    1 W    74      4.978500      2.874338      2.179276  14.0000 183.8400
     47    2 Se   34      6.638003      3.832453      3.858553   6.0000  78.9600
     48    2 Se   34      6.638003      3.832453      0.500000   6.0000  78.9600
     49    1 W    74      8.297500      2.874338      2.179276  14.0000 183.8400
     50    2 Se   34      9.957003      3.832453      3.858553   6.0000  78.9600
     51    2 Se   34      9.957003      3.832453      0.500000   6.0000  78.9600
     52    1 W    74     11.616500      2.874338      2.179276  14.0000 183.8400
     53    2 Se   34     13.276003      3.832453      3.858553   6.0000  78.9600
     54    2 Se   34     13.276003      3.832453      0.500000   6.0000  78.9600
     55    1 W    74     14.935500      2.874338      2.179276  14.0000 183.8400
     56    2 Se   34     16.595003      3.832453      3.858553   6.0000  78.9600
     57    2 Se   34     16.595003      3.832453      0.500000   6.0000  78.9600
     58    1 W    74     18.254500      2.874338      2.179276  14.0000 183.8400
     59    2 Se   34     19.914003      3.832453      3.858553   6.0000  78.9600
     60    2 Se   34     19.914003      3.832453      0.500000   6.0000  78.9600
     61    1 W    74     21.573500      2.874338      2.179276  14.0000 183.8400
     62    2 Se   34     23.233003      3.832453      3.858553   6.0000  78.9600
     63    2 Se   34     23.233003      3.832453      0.500000   6.0000  78.9600
     64    1 W    74     24.892500      2.874338      2.179276  14.0000 183.8400
     65    2 Se   34     26.552003      3.832453      3.858553   6.0000  78.9600
     66    2 Se   34     26.552003      3.832453      0.500000   6.0000  78.9600
     67    1 W    74     28.211500      2.874338      2.179276  14.0000 183.8400
     68    2 Se   34     29.871003      3.832453      3.858553   6.0000  78.9600
     69    2 Se   34     29.871003      3.832453      0.500000   6.0000  78.9600
     70    1 W    74     31.530500      2.874338      2.179276  14.0000 183.8400
     71    2 Se   34     33.190003      3.832453      3.858553   6.0000  78.9600
     72    2 Se   34     33.190003      3.832453      0.500000   6.0000  78.9600
     73    1 W    74     34.849500      2.874338      2.179276  14.0000 183.8400
     74    2 Se   34     36.509003      3.832453      3.858553   6.0000  78.9600
     75    2 Se   34     36.509003      3.832453      0.500000   6.0000  78.9600
     76    1 W    74     38.168500      2.874338      2.179276  14.0000 183.8400
     77    2 Se   34     39.828003      3.832453      3.858553   6.0000  78.9600
     78    2 Se   34     39.828003      3.832453      0.500000   6.0000  78.9600
     79    1 W    74     -3.319000      5.748677      2.179276  14.0000 183.8400
     80    2 Se   34     -1.659497      6.706791      3.858553   6.0000  78.9600
     81    2 Se   34     -1.659497      6.706791      0.500000   6.0000  78.9600
     82    1 W    74      0.000000      5.748677      2.179276  14.0000 183.8400
     83    2 Se   34      1.659503      6.706791      3.858553   6.0000  78.9600
     84    2 Se   34      1.659503      6.706791      0.500000   6.0000  78.9600
     85    1 W    74      3.319000      5.748677      2.179276  14.0000 183.8400
     86    2 Se   34      4.978503      6.706791      3.858553   6.0000  78.9600
     87    2 Se   34      4.978503      6.706791      0.500000   6.0000  78.9600
     88    1 W    74      6.638000      5.748677      2.179276  14.0000 183.8400
     89    2 Se   34      8.297503      6.706791      3.858553   6.0000  78.9600
     90    2 Se   34      8.297503      6.706791      0.500000   6.0000  78.9600
     91    1 W    74      9.957000      5.748677      2.179276  14.0000 183.8400
     92    2 Se   34     11.616503      6.706791      3.858553   6.0000  78.9600
     93    2 Se   34     11.616503      6.706791      0.500000   6.0000  78.9600
     94    1 W    74     13.276000      5.748677      2.179276  14.0000 183.8400
     95    2 Se   34     14.935503      6.706791      3.858553   6.0000  78.9600
     96    2 Se   34     14.935503      6.706791      0.500000   6.0000  78.9600
     97    1 W    74     16.595000      5.748677      2.179276  14.0000 183.8400
     98    2 Se   34     18.254503      6.706791      3.858553   6.0000  78.9600
     99    2 Se   34     18.254503      6.706791      0.500000   6.0000  78.9600
    100    1 W    74     19.914000      5.748677      2.179276  14.0000 183.8400
    101    2 Se   34     21.573503      6.706791      3.858553   6.0000  78.9600
    102    2 Se   34     21.573503      6.706791      0.500000   6.0000  78.9600
    103    1 W    74     23.233000      5.748677      2.179276  14.0000 183.8400
    104    2 Se   34     24.892503      6.706791      3.858553   6.0000  78.9600
    105    2 Se   34     24.892503      6.706791      0.500000   6.0000  78.9600
    106    1 W    74     26.552000      5.748677      2.179276  14.0000 183.8400
    107    2 Se   34     28.211503      6.706791      3.858553   6.0000  78.9600
    108    2 Se   34     28.211503      6.706791      0.500000   6.0000  78.9600
    109    1 W    74     29.871000      5.748677      2.179276  14.0000 183.8400
    110    2 Se   34     31.530503      6.706791      3.858553   6.0000  78.9600
    111    2 Se   34     31.530503      6.706791      0.500000   6.0000  78.9600
    112    1 W    74     33.190000      5.748677      2.179276  14.0000 183.8400
    113    2 Se   34     34.849503      6.706791      3.858553   6.0000  78.9600
    114    2 Se   34     34.849503      6.706791      0.500000   6.0000  78.9600
    115    1 W    74     36.509000      5.748677      2.179276  14.0000 183.8400
    116    2 Se   34     38.168503      6.706791      3.858553   6.0000  78.9600
    117    2 Se   34     38.168503      6.706791      0.500000   6.0000  78.9600
    118    1 W    74     -4.978500      8.623015      2.179276  14.0000 183.8400
    119    2 Se   34     -3.318997      9.581130      3.858553   6.0000  78.9600
    120    2 Se   34     -3.318997      9.581130      0.500000   6.0000  78.9600
    121    1 W    74     -1.659500      8.623015      2.179276  14.0000 183.8400
    122    2 Se   34      0.000003      9.581130      3.858553   6.0000  78.9600
    123    2 Se   34      0.000003      9.581130      0.500000   6.0000  78.9600
    124    1 W    74      1.659500      8.623015      2.179276  14.0000 183.8400
    125    2 Se   34      3.319003      9.581130      3.858553   6.0000  78.9600
    126    2 Se   34      3.319003      9.581130      0.500000   6.0000  78.9600
    127    1 W    74      4.978500      8.623015      2.179276  14.0000 183.8400
    128    2 Se   34      6.638003      9.581130      3.858553   6.0000  78.9600
    129    2 Se   34      6.638003      9.581130      0.500000   6.0000  78.9600
    130    1 W    74      8.297500      8.623015      2.179276  14.0000 183.8400
    131    2 Se   34      9.957003      9.581130      3.858553   6.0000  78.9600
    132    2 Se   34      9.957003      9.581130      0.500000   6.0000  78.9600
    133    1 W    74     11.616500      8.623015      2.179276  14.0000 183.8400
    134    2 Se   34     13.276003      9.581130      3.858553   6.0000  78.9600
    135    2 Se   34     13.276003      9.581130      0.500000   6.0000  78.9600
    136    1 W    74     14.935500      8.623015      2.179276  14.0000 183.8400
    137    2 Se   34     16.595003      9.581130      3.858553   6.0000  78.9600
    138    2 Se   34     16.595003      9.581130      0.500000   6.0000  78.9600
    139    1 W    74     18.254500      8.623015      2.179276  14.0000 183.8400
    140    2 Se   34     19.914003      9.581130      3.858553   6.0000  78.9600
    141    2 Se   34     19.914003      9.581130      0.500000   6.0000  78.9600
    142    1 W    74     21.573500      8.623015      2.179276  14.0000 183.8400
    143    2 Se   34     23.233003      9.581130      3.858553   6.0000  78.9600
    144    2 Se   34     23.233003      9.581130      0.500000   6.0000  78.9600
    145    1 W    74     24.892500      8.623015      2.179276  14.0000 183.8400
    146    2 Se   34     26.552003      9.581130      3.858553   6.0000  78.9600
    147    2 Se   34     26.552003      9.581130      0.500000   6.0000  78.9600
    148    1 W    74     28.211500      8.623015      2.179276  14.0000 183.8400
    149    2 Se   34     29.871003      9.581130      3.858553   6.0000  78.9600
    150    2 Se   34     29.871003      9.581130      0.500000   6.0000  78.9600
    151    1 W    74     31.530500      8.623015      2.179276  14.0000 183.8400
    152    2 Se   34     33.190003      9.581130      3.858553   6.0000  78.9600
    153    2 Se   34     33.190003      9.581130      0.500000   6.0000  78.9600
    154    1 W    74     34.849500      8.623015      2.179276  14.0000 183.8400
    155    2 Se   34     36.509003      9.581130      3.858553   6.0000  78.9600
    156    2 Se   34     36.509003      9.581130      0.500000   6.0000  78.9600
    157    1 W    74     -6.638000     11.497353      2.179276  14.0000 183.8400
    158    2 Se   34     -4.978497     12.455468      3.858553   6.0000  78.9600
    159    2 Se   34     -4.978497     12.455468      0.500000   6.0000  78.9600
    160    1 W    74     -3.319000     11.497353      2.179276  14.0000 183.8400
    161    2 Se   34     -1.659497     12.455468      3.858553   6.0000  78.9600
    162    2 Se   34     -1.659497     12.455468      0.500000   6.0000  78.9600
    163    1 W    74      0.000000     11.497353      2.179276  14.0000 183.8400
    164    2 Se   34      1.659503     12.455468      3.858553   6.0000  78.9600
    165    2 Se   34      1.659503     12.455468      0.500000   6.0000  78.9600
    166    1 W    74      3.319000     11.497353      2.179276  14.0000 183.8400
    167    2 Se   34      4.978503     12.455468      3.858553   6.0000  78.9600
    168    2 Se   34      4.978503     12.455468      0.500000   6.0000  78.9600
    169    1 W    74      6.638000     11.497353      2.179276  14.0000 183.8400
    170    2 Se   34      8.297503     12.455468      3.858553   6.0000  78.9600
    171    2 Se   34      8.297503     12.455468      0.500000   6.0000  78.9600
    172    1 W    74      9.957000     11.497353      2.179276  14.0000 183.8400
    173    2 Se   34     11.616503     12.455468      3.858553   6.0000  78.9600
    174    2 Se   34     11.616503     12.455468      0.500000   6.0000  78.9600
    175    1 W    74     13.276000     11.497353      2.179276  14.0000 183.8400
    176    2 Se   34     14.935503     12.455468      3.858553   6.0000  78.9600
    177    2 Se   34     14.935503     12.455468      0.500000   6.0000  78.9600
    178    1 W    74     16.595000     11.497353      2.179276  14.0000 183.8400
    179    2 Se   34     18.254503     12.455468      3.858553   6.0000  78.9600
    180    2 Se   34     18.254503     12.455468      0.500000   6.0000  78.9600
    181    1 W    74     19.914000     11.497353      2.179276  14.0000 183.8400
    182    2 Se   34     21.573503     12.455468      3.858553   6.0000  78.9600
    183    2 Se   34     21.573503     12.455468      0.500000   6.0000  78.9600
    184    1 W    74     23.233000     11.497353      2.179276  14.0000 183.8400
    185    2 Se   34     24.892503     12.455468      3.858553   6.0000  78.9600
    186    2 Se   34     24.892503     12.455468      0.500000   6.0000  78.9600
    187    1 W    74     26.552000     11.497353      2.179276  14.0000 183.8400
    188    2 Se   34     28.211503     12.455468      3.858553   6.0000  78.9600
    189    2 Se   34     28.211503     12.455468      0.500000   6.0000  78.9600
    190    1 W    74     29.871000     11.497353      2.179276  14.0000 183.8400
    191    2 Se   34     31.530503     12.455468      3.858553   6.0000  78.9600
    192    2 Se   34     31.530503     12.455468      0.500000   6.0000  78.9600
    193    1 W    74     33.190000     11.497353      2.179276  14.0000 183.8400
    194    2 Se   34     34.849503     12.455468      3.858553   6.0000  78.9600
    195    2 Se   34     34.849503     12.455468      0.500000   6.0000  78.9600
    196    1 W    74     -8.297500     14.371692      2.179276  14.0000 183.8400
    197    2 Se   34     -6.637997     15.329806      3.858553   6.0000  78.9600
    198    2 Se   34     -6.637997     15.329806      0.500000   6.0000  78.9600
    199    1 W    74     -4.978500     14.371692      2.179276  14.0000 183.8400
    200    2 Se   34     -3.318997     15.329806      3.858553   6.0000  78.9600
    201    2 Se   34     -3.318997     15.329806      0.500000   6.0000  78.9600
    202    1 W    74     -1.659500     14.371692      2.179276  14.0000 183.8400
    203    2 Se   34      0.000003     15.329806      3.858553   6.0000  78.9600
    204    2 Se   34      0.000003     15.329806      0.500000   6.0000  78.9600
    205    1 W    74      1.659500     14.371692      2.179276  14.0000 183.8400
    206    2 Se   34      3.319003     15.329806      3.858553   6.0000  78.9600
    207    2 Se   34      3.319003     15.329806      0.500000   6.0000  78.9600
    208    1 W    74      4.978500     14.371692      2.179276  14.0000 183.8400
    209    2 Se   34      6.638003     15.329806      3.858553   6.0000  78.9600
    210    2 Se   34      6.638003     15.329806      0.500000   6.0000  78.9600
    211    1 W    74      8.297500     14.371692      2.179276  14.0000 183.8400
    212    2 Se   34      9.957003     15.329806      3.858553   6.0000  78.9600
    213    2 Se   34      9.957003     15.329806      0.500000   6.0000  78.9600
    214    1 W    74     11.616500     14.371692      2.179276  14.0000 183.8400
    215    2 Se   34     13.276003     15.329806      3.858553   6.0000  78.9600
    216    2 Se   34     13.276003     15.329806      0.500000   6.0000  78.9600
    217    1 W    74     14.935500     14.371692      2.179276  14.0000 183.8400
    218    2 Se   34     16.595003     15.329806      3.858553   6.0000  78.9600
    219    2 Se   34     16.595003     15.329806      0.500000   6.0000  78.9600
    220    1 W    74     18.254500     14.371692      2.179276  14.0000 183.8400
    221    2 Se   34     19.914003     15.329806      3.858553   6.0000  78.9600
    222    2 Se   34     19.914003     15.329806      0.500000   6.0000  78.9600
[...]
    ?  x   ??  x  ???                                    39370022356       2.80%
    ?  x  ???  x    ?                                   181101381402      12.87%
   ??  x   ??  x  ???                                   142245615836      10.11%
   ??  x   ??  x   ??                                    17589762529       1.25%
   ??  x  ???  x    ?                                    56033590860       3.98%
    ?  x >999  x    ?                                    30029758404       2.13%
   ??  x    ?  x  ???                                    38420412262       2.73%
    ?  x  ???  x   ??                                    46720903784       3.32%
   ??  x    ?  x >999                                     7784576169       0.55%
    ?  x >999  x   ??                                     7667582763       0.54%
    ?  x   ??  x >999                                     7623843299       0.54%
    ?  x    ?  x  ???                                   140433487864       9.98%
    ?  x    ?  x    ?                                   453938655328      32.26%
    ?  x    ?  x >999                                    28343583262       2.01%
   ??  x >999  x   ??                                     2366954888       0.17%
   ??  x >999  x    ?                                     9288006030       0.66%
 -------------------------------------------------------------------------------

 -------------------------------------------------------------------------------
 -                                                                             -
 -                                GRID STATISTICS                              -
 -                                                                             -
 -------------------------------------------------------------------------------
 LP    KERNEL             BACKEND                              COUNT     PERCENT
 5     collocate general  REF                                3112980      22.84%
 5     integrate general  REF                                3112980      22.84%
 4     collocate general  REF                                1779570      13.06%
 4     integrate general  REF                                1779570      13.06%
 6     collocate general  REF                                1410305      10.35%
 6     integrate general  REF                                1410305      10.35%
 0     collocate general  REF                                 681408       5.00%
 0     integrate general  REF                                 340704       2.50%
 -------------------------------------------------------------------------------

 MEMORY| Estimated peak process memory [MiB]                               18613

 -------------------------------------------------------------------------------
 ----                             MULTIGRID INFO                            ----
 -------------------------------------------------------------------------------
 count for grid        1:       14357101          cutoff [a.u.]          250.00
 count for grid        2:       10823856          cutoff [a.u.]           83.33
 count for grid        3:        6804045          cutoff [a.u.]           27.78
 count for grid        4:          77952          cutoff [a.u.]            9.26
 total gridlevel count  :       32062954

 -------------------------------------------------------------------------------
 -                                                                             -
 -                         MESSAGE PASSING PERFORMANCE                         -
 -                                                                             -
 -------------------------------------------------------------------------------

 ROUTINE             CALLS      AVE VOLUME [Bytes]
 MP_Group             5945
 MP_Bcast            19751                 449193.
 MP_Allreduce        11649                  25052.
 MP_Sync              8992
 MP_Alltoall          3822
 MP_ISendRecv        13420                  24736.
 MP_Wait             22953
 MP_comm_split        3471
 MP_ISend           731856                 512160.
 MP_IRecv           862584                 479306.
 MP_Recv               364                2985216.
 -------------------------------------------------------------------------------


 -------------------------------------------------------------------------------
 -                                                                             -
 -                           R E F E R E N C E S                               -
 -                                                                             -
 -------------------------------------------------------------------------------
 
 CP2K version 2022.1 (Development Version), the CP2K developers group (2022).
 CP2K is freely available from https://www.cp2k.org/ .

 Kuehne,Thomas D.; Iannuzzi,Marcella; Del Ben,Mauro;
 Rybkin,Vladimir V.; Seewald,Patrick; Stein,Frederick; Laino,Teodoro;
 Khaliullin,Rustam Z.; Schuett,Ole; Schiffmann,Florian; Golze,Dorothea;
 Wilhelm,Jan; Chulkov,Sergey; Bani-Hashemian,Mohammad Hossein;
 Weber,Valery; Borstnik,Urban; Taillefumier,Mathieu;
 Jakobovits,Alice Shoshana; Lazzaro,Alfio; Pabst,Hans; Mueller,Tiziano;
 Schade,Robert; Guidon,Manuel; Andermatt,Samuel; Holmberg,Nico;
 Schenter,Gregory K.; Hehn,Anna; Bussy,Augustin; Belleflamme,Fabian;
 Tabacchi,Gloria; Gloess,Andreas; Lass,Michael; Bethune,Iain;
 Mundy,Christopher J.; Plessl,Christian; Watkins,Matt;
 VandeVondele,Joost; Krack,Matthias; Hutter,Juerg. 
 The Journal of Chemical Physics, 152 (19), (2020). 
 CP2K: An electronic structure and molecular dynamics software package -
 Quickstep: Efficient and accurate electronic structure calculations.
 https://doi.org/10.1063/5.0007045

 Wilhelm, J; Golze, D; Talirz, L; Hutter, J; Pignedoli, CA. 
 JOURNAL OF PHYSICAL CHEMISTRY LETTERS, 9, 306-312 (2018). 
 Toward GW calculations on thousands of atoms.
 https://doi.org/10.1021/acs.jpclett.7b02740

 Wilhelm, J; Hutter, J. PHYSICAL REVIEW B, 95, 235123 (2017). 
 Periodic GW calculations in the Gaussian and plane-waves scheme.
 https://doi.org/10.1103/PhysRevB.95.235123

 Wilhelm, J; Del Ben, M; Hutter, J. 
 JOURNAL OF CHEMICAL THEORY AND COMPUTATION, 12, 3623-3635 (2016). 
 GW in the Gaussian and plane waves scheme with application to linear acenes.
 https://doi.org/10.1021/acs.jctc.6b00380

 Wilhelm, J; Seewald, P; Del Ben, M; Hutter, J. 
 JOURNAL OF CHEMICAL THEORY AND COMPUTATION, 12, 5851-5859 (2016). 
 Large-Scale Cubic-Scaling Random Phase Approximation Correlation.
 https://doi.org/10.1021/acs.jctc.6b00840

 Schuett, Ole; Messmer, Peter; Hutter, Juerg; VandeVondele, Joost. 
 Electronic Structure Calculations on Graphics Processing Units, John
 Wiley & Sons, Ltd, 173-190 (2016). 
 GPU-Accelerated Sparse Matrix-Matrix Multiplication for
 Linear Scaling Density Functional Theory.
 https://doi.org/10.1002/9781118670712.ch8

 Del Ben, M; Schuett, O; Wentz, T; Messmer, P; Hutter, J;
 VandeVondele, J. 
 COMPUTER PHYSICS COMMUNICATIONS, 187, 120-129 (2015). 
 Enabling simulation at the fifth rung of DFT: Large scale RPA
 calculations with excellent time to solution.
 https://doi.org/10.1016/j.cpc.2014.10.021

 Borstnik, U; VandeVondele, J; Weber, V; Hutter, J. 
 PARALLEL COMPUTING, 40 (5-6), 47-58 (2014). 
 Sparse matrix multiplication: The distributed block-compressed sparse
 row library.
 https://doi.org/10.1016/j.parco.2014.03.012

 Hutter, J; Iannuzzi, M; Schiffmann, F; VandeVondele, J. 
 WIREs Comput Mol Sci., 4 (1), 15-25 (2014). 
 CP2K: atomistic simulations of condensed matter systems.
 https://doi.org/10.1002/wcms.1159

 Del Ben, M; Hutter, J; VandeVondele, J. 
 JOURNAL OF CHEMICAL THEORY AND COMPUTATION, 9 (6), 2654-2671 (2013). 
 Electron Correlation in the Condensed Phase from a Resolution of
 Identity Approach Based on the Gaussian and Plane Waves Scheme.
 https://doi.org/10.1021/ct4002202

 Del Ben, M; Hutter, J; VandeVondele, J. 
 JOURNAL OF CHEMICAL THEORY AND COMPUTATION, 8 (11), 4177-4188 (2012). 
 Second-Order Moller-Plesset Perturbation Theory in the Condensed Phase:
 An Efficient and Massively Parallel Gaussian and Plane Waves Approach.
 https://doi.org/10.1021/ct300531w

 VandeVondele, J; Hutter, J. 
 JOURNAL OF CHEMICAL PHYSICS, 127 (11), 114105 (2007). 
 Gaussian basis sets for accurate calculations on molecular systems in
 gas and condensed phases.
 https://doi.org/10.1063/1.2770708

 Krack, M. 
 THEORETICAL CHEMISTRY ACCOUNTS, 114 (1-3), 145-152 (2005). 
 Pseudopotentials for H to Kr optimized for gradient-corrected
 exchange-correlation functionals.
 https://doi.org/10.1007/s00214-005-0655-y

 VandeVondele, J; Krack, M; Mohamed, F; Parrinello, M; Chassaing, T;
 Hutter, J. COMPUTER PHYSICS COMMUNICATIONS, 167 (2), 103-128 (2005). 
 QUICKSTEP: Fast and accurate density functional calculations using a
 mixed Gaussian and plane waves approach.
 https://doi.org/10.1016/j.cpc.2004.12.014

 Frigo, M; Johnson, SG. 
 PROCEEDINGS OF THE IEEE, 93 (2), 216-231 (2005). 
 The design and implementation of FFTW3.
 https://doi.org/10.1109/JPROC.2004.840301

 Hartwigsen, C; Goedecker, S; Hutter, J. 
 PHYSICAL REVIEW B, 58 (7), 3641-3662 (1998). 
 Relativistic separable dual-space Gaussian pseudopotentials from H to Rn.
 https://doi.org/10.1103/PhysRevB.58.3641

 Lippert, G; Hutter, J; Parrinello, M. 
 MOLECULAR PHYSICS, 92 (3), 477-487 (1997). 
 A hybrid Gaussian and plane wave density functional scheme.
 https://doi.org/10.1080/002689797170220

 Goedecker, S; Teter, M; Hutter, J. 
 PHYSICAL REVIEW B, 54 (3), 1703-1710 (1996). 
 Separable dual-space Gaussian pseudopotentials.
 https://doi.org/10.1103/PhysRevB.54.1703


 -------------------------------------------------------------------------------
 -                                                                             -
 -                                T I M I N G                                  -
 -                                                                             -
 -------------------------------------------------------------------------------
 SUBROUTINE                       CALLS  ASD         SELF TIME        TOTAL TIME
                                MAXIMUM       AVERAGE  MAXIMUM  AVERAGE  MAXIMUM
 CP2K                                 1  1.0     0.02     0.06 43802.90 43802.90
 qs_energies                          1  2.0     0.00     0.00 43801.50 43801.78
 mp2_main                             1  3.0     0.00     0.00 43743.17 43743.45
 mp2_gpw_main                         1  4.0     0.01     0.05 43733.57 43733.84
 rpa_ri_compute_en                    1  5.0     0.00     0.03 40180.57 40180.85
 rpa_num_int                          1  6.0     0.00     0.00 38610.23 38610.51
 dbt_total                         1907  9.8     0.03     0.09 19673.71 19673.73
 dbt_contract                       765 11.0     0.18     0.37 18218.31 18220.96
 dbt_tas_total                     1206 13.4   768.39   909.83 17963.43 17963.44
 dbt_tas_multiply                  1065 12.8     0.00     0.00 17874.08 17874.11
 rpa_num_int_RPA_matrix_operati      10  7.0     0.00     0.00 16398.00 16398.02
 invert_eps_compute_W_and_Erpa_      10  8.0     0.00     0.01 16397.97 16397.99
 compute_QP_energies                  1  7.0     0.00     0.00 15805.73 15805.73
 compute_self_energy_cubic_gw_k       1  8.0     0.28     0.31 15805.03 15805.49
 dbt_tas_dbm                       1065 14.8     0.01     0.01 15124.77 15124.80
 dbm_multiply                      1065 16.8 12588.12 13703.71 12588.12 13703.71
 compute_Q_kp_RPA                   260  9.0     1.78     1.89 11937.62 11944.60
 cp_cfm_power                       312  9.7     1.56     1.74 11485.34 11488.46
 cp_cfm_heevd                       441 10.2 10940.73 10949.48 10940.73 10949.48
 parallel_gemm_cfm                 4194 10.2     0.01     0.02  8438.10  8468.37
 parallel_gemm_cfm_gemm            4194 11.2     0.01     0.02  8438.08  8468.35
 cp_cfm_gemm                       4194 12.2  8438.07  8468.34  8438.07  8468.34
 tensor_operation_3c_W               99  9.0     0.00     0.00  7884.69  7896.54
 compute_mat_P_omega                  1  7.0     0.00     0.01  6389.40  6389.43
 compute_mat_P_omega_contract        10  8.0     7.68     8.35  6323.78  6323.82
 dbt_tas_mm_3N                      198 16.5     0.00     0.00  5511.57  6140.50
 contract_to_self_energy            198  9.0     0.03     0.04  5691.63  5704.12
 dbt_tas_mm_2                       289 15.0     0.00     0.00  4727.85  4727.88
 mp_sync                           8992 12.5  3157.96  4348.25  3157.96  4348.25
 compute_Wc_real_space_tau_GW       260  9.0     0.00     0.00  3739.71  3740.32
 mp2_ri_gpw_compute_in                1  5.0     0.00     0.00  3552.95  3552.96
 get_2c_integrals                     1  6.0     0.00     0.00  3378.60  3378.60
 compute_mat_P_omega_calc_P_t        90  9.0     0.00     0.00  2952.89  2952.90
 compute_Wc_real_space_tau_GW_3     260 10.0     0.00     0.00  2642.02  2661.29
 trafo_to_mo_and_kpoints             21  9.0     0.69     0.74  2065.81  2065.82
 inversion_of_M_and_mult_with_c       1  7.0     0.00     0.00  1957.97  1957.98
 dbt_tas_mm_3T                      396 16.5     0.00     0.00  1690.10  1756.49
 dbt_tas_mm_1N                      182 15.0     0.00     0.00  1467.52  1655.52
 get_bandstruc_and_k_dependent_       1  6.0     0.00     0.00  1570.34  1570.35
 create_kp_and_calc_kp_orbitals       3  7.0     0.01     0.01  1570.34  1570.35
 cp_cfm_geeig                       129  8.0     0.01     0.01  1542.21  1543.91
 compute_mat_P_omega_calc_M_occ      90  9.0     7.66     8.37  1372.72  1372.72
 compute_mat_P_omega_calc_M_vir      90  9.0     0.00     0.00  1264.61  1264.61
 dbt_copy                           949 10.8     0.09     0.23   999.58  1097.71
 dbt_reshape                        929 11.8   290.49   312.28   987.84  1085.91
 mp_waitall_2                      5489 16.8   952.47  1064.95   952.47  1064.95
 compute_Wc_real_space_tau_GW_2     260 10.0     0.23     0.27  1035.77  1046.82
 cp_cfm_cholesky_invert             260 11.0   989.43   990.08   989.43   990.08
 compute_V_by_lattice_sum             1  7.0     0.00     0.00   914.85   914.85
 build_2c_coulomb_matrix_kp           2  8.0     0.00     0.00   799.69   911.09
 lattice_sum                          2  9.0    31.07    34.33   799.68   911.08
 compute_v_transl                 13312 10.0   760.76   869.42   768.29   877.25
 dbt_communicate_buffer             929 12.8     0.43     0.48   643.20   730.84
 dbt_tas_replicate                  929 15.0   148.19   182.73   615.45   657.82
 cp_cfm_cholesky_decompose          389  9.7   650.85   650.97   650.85   650.97
 cholesky_decomp_Q                  260  9.0     2.17     2.36   611.30   620.29
 cp_cfm_triangular_multiply         387  9.0   578.58   583.57   578.58   583.57
 compute_2c_integrals                 1  7.0     0.00     0.00   492.63   492.63
 fill_fm_L_from_L_loc_non_block       1  8.0     0.00     0.00   427.07   492.27
 fill_fm_L_from_L_loc_non_block       1  9.0   426.99   492.18   426.99   492.18
 mp_sum_l                          6500 14.1   255.31   445.41   255.31   445.41
 dbm_redistribute                   600 16.2   414.87   440.15   414.87   440.15
 -------------------------------------------------------------------------------

 The number of warnings for this run is : 2
 
 -------------------------------------------------------------------------------
  **** **** ******  **  PROGRAM ENDED AT                 2023-03-09 15:05:57.046
 ***** ** ***  *** **   PROGRAM RAN ON                              f01r01c01s03
 **    ****   ******    PROGRAM RAN BY                                   di76zil
 ***** **    ** ** **   PROGRAM PROCESS ID                               1907705
  **** **  *******  **  PROGRAM STOPPED IN /hppfs/work/pn72pa/di76zil/11_2D_peri
                                           odic_materials/10_clean_WSe2/13x13/2_
                                           RI-3_RI_reg_1e-2
slurmstepd: error: _get_joules_task: received 0 xcc sensors expected 1
slurmstepd: error: _get_joules_task: received 0 xcc sensors expected 1
slurmstepd: error: _get_joules_task: received 0 xcc sensors expected 1
slurmstepd: error: _get_joules_task: received 0 xcc sensors expected 1
slurmstepd: error: _get_joules_task: received 0 xcc sensors expected 1
slurmstepd: error: _get_joules_task: received 0 xcc sensors expected 1
slurmstepd: error: _get_joules_task: received 0 xcc sensors expected 1
slurmstepd: error: _get_joules_task: received 0 xcc sensors expected 1
slurmstepd: error: _get_joules_task: received 0 xcc sensors expected 1
slurmstepd: error: _get_joules_task: received 0 xcc sensors expected 1
slurmstepd: error: _get_joules_task: received 0 xcc sensors expected 1
slurmstepd: error: _get_joules_task: received 0 xcc sensors expected 1
slurmstepd: error: _get_joules_task: received 0 xcc sensors expected 1
slurmstepd: error: _get_joules_task: received 0 xcc sensors expected 1
slurmstepd: error: _get_joules_task: received 0 xcc sensors expected 1
slurmstepd: error: _get_joules_task: received 0 xcc sensors expected 1
slurmstepd: error: _get_joules_task: received 0 xcc sensors expected 1
slurmstepd: error: _get_joules_task: received 0 xcc sensors expected 1
slurmstepd: error: _get_joules_task: received 0 xcc sensors expected 1
slurmstepd: error: _get_joules_task: received 0 xcc sensors expected 1
slurmstepd: error: _get_joules_task: received 0 xcc sensors expected 1
slurmstepd: error: _get_joules_task: received 0 xcc sensors expected 1
slurmstepd: error: _get_joules_task: received 0 xcc sensors expected 1
slurmstepd: error: _get_joules_task: received 0 xcc sensors expected 1
slurmstepd: error: _get_joules_task: received 0 xcc sensors expected 1
slurmstepd: error: _get_joules_task: received 0 xcc sensors expected 1
slurmstepd: error: _get_joules_task: received 0 xcc sensors expected 1
slurmstepd: error: _get_joules_task: received 0 xcc sensors expected 1
slurmstepd: error: _get_joules_task: received 0 xcc sensors expected 1
slurmstepd: error: _get_joules_task: received 0 xcc sensors expected 1
slurmstepd: error: _get_joules_task: received 0 xcc sensors expected 1
slurmstepd: error: _get_joules_task: received 0 xcc sensors expected 1
slurmstepd: error: _get_joules_task: received 0 xcc sensors expected 1
slurmstepd: error: _get_joules_task: received 0 xcc sensors expected 1
slurmstepd: error: _get_joules_task: received 0 xcc sensors expected 1
slurmstepd: error: _get_joules_task: received 0 xcc sensors expected 1
slurmstepd: error: _get_joules_task: received 0 xcc sensors expected 1
slurmstepd: error: _get_joules_task: received 0 xcc sensors expected 1
slurmstepd: error: _get_joules_task: received 0 xcc sensors expected 1
slurmstepd: error: _get_joules_task: received 0 xcc sensors expected 1
slurmstepd: error: _get_joules_task: received 0 xcc sensors expected 1
slurmstepd: error: _get_joules_task: received 0 xcc sensors expected 1
slurmstepd: error: _get_joules_task: received 0 xcc sensors expected 1
slurmstepd: error: _get_joules_task: received 0 xcc sensors expected 1
slurmstepd: error: _get_joules_task: received 0 xcc sensors expected 1
slurmstepd: error: _get_joules_task: received 0 xcc sensors expected 1
slurmstepd: error: _get_joules_task: received 0 xcc sensors expected 1
slurmstepd: error: _get_joules_task: received 0 xcc sensors expected 1
slurmstepd: error: _get_joules_task: received 0 xcc sensors expected 1
slurmstepd: error: _get_joules_task: received 0 xcc sensors expected 1
slurmstepd: error: _get_joules_task: received 0 xcc sensors expected 1
slurmstepd: error: _get_joules_task: received 0 xcc sensors expected 1
slurmstepd: error: _get_joules_task: received 0 xcc sensors expected 1
slurmstepd: error: _get_joules_task: received 0 xcc sensors expected 1
slurmstepd: error: _get_joules_task: received 0 xcc sensors expected 1
slurmstepd: error: _get_joules_task: received 0 xcc sensors expected 1
