 DBCSR| CPU Multiplication driver                                           XSMM (U)
 DBCSR| Multrec recursion limit                                              512 (U)
 DBCSR| Multiplication stack size                                           1000 (D)
 DBCSR| Maximum elements for images                                    UNLIMITED (U)
 DBCSR| Multiplicative factor virtual images                                   1 (U)
 DBCSR| Use multiplication densification                                       T (D)
 DBCSR| Multiplication size stacks                                             3 (U)
 DBCSR| Use memory pool for CPU allocation                                     F (U)
 DBCSR| Number of 3D layers                                               SINGLE (U)
 DBCSR| Use MPI memory allocation                                              F (U)
 DBCSR| Use RMA algorithm                                                      F (U)
 DBCSR| Use Communication thread                                               T (U)
 DBCSR| Communication thread load                                             75 (D)
 DBCSR| MPI: My process id                                                     0
 DBCSR| MPI: Number of processes                                            1280
 DBCSR| OMP: Current number of threads                                         4
 DBCSR| OMP: Max number of threads                                             4
 DBCSR| Split modifier for TAS multiplication algorithm                  1.0E+00 (U)


  **** **** ******  **  PROGRAM STARTED AT               2023-05-28 04:14:40.697
 ***** ** ***  *** **   PROGRAM STARTED ON                              n2cn0301
 **    ****   ******    PROGRAM STARTED BY                              eprop2d1
 ***** **    ** ** **   PROGRAM PROCESS ID                               4000385
  **** **  *******  **  PROGRAM STARTED IN /scratch/hpc-prf-eprop2d/eprop2d1_Jan
                                           /02_MoS2_MoSe2_WS2_WSe2/1_MoS2/10x10_
                                           PBE/01_reg_RI_1e-2_TZV2P_gap_standard
                                           _RI/1_10_minimax

 CP2K| version string:                 CP2K version 2023.1 (Development Version)
 CP2K| source code revision number:                                  git:a5f008f
 CP2K| cp2kflags: omp libint fftw3 libxc elpa parallel scalapack cosma xsmm plum
 CP2K|            ed2 spglib sirius libvori libbqb libvdwxc
 CP2K| is freely available from                            https://www.cp2k.org/
 CP2K| Program compiled at                         Tue Apr 11 10:47:55 CEST 2023
 CP2K| Program compiled on                                              n2login5
 CP2K| Program compiled for                                                local
 CP2K| Data directory path    /opt/software/pc2/EB-SW/software/CP2K/2023.1-foss-
 CP2K| Input file name                                                    GW.inp

 GLOBAL| Force Environment number                                              1
 GLOBAL| Basis set file name                                        BASIS_MOLOPT
 GLOBAL| Potential file name                                      GTH_POTENTIALS
 GLOBAL| MM Potential file name                                     MM_POTENTIAL
 GLOBAL| Coordinate file name                                      __STD_INPUT__
 GLOBAL| Method name                                                        CP2K
 GLOBAL| Project name                                                       MoS2
 GLOBAL| Run type                                                         ENERGY
 GLOBAL| FFT library                                                       FFTW3
 GLOBAL| Diagonalization library                                            ELPA
 GLOBAL| DGEMM library                                                      BLAS
 GLOBAL| Minimum number of eigenvectors for ELPA usage                        16
 GLOBAL| Orthonormality check for eigenvectors                          DISABLED
 GLOBAL| Matrix multiplication library                                     COSMA
 GLOBAL| All-to-all communication in single precision                          F
 GLOBAL| FFTs using library dependent lengths                                  F
 GLOBAL| Grid backend                                                       AUTO
 GLOBAL| Global print level                                               MEDIUM
 GLOBAL| MPI I/O enabled                                                       T
 GLOBAL| Total number of message passing processes                          1280
 GLOBAL| Number of threads for this process                                    4
 GLOBAL| This output is from process                                           0
 GLOBAL| Stack size for threads created by OpenMP (OMP_STACKSIZE)        default
 GLOBAL| CPU model name                          AMD EPYC 7763 64-Core Processor
 GLOBAL| CPUID                                                              1002
 GLOBAL| Compiled for CPUID                                                    0

 *** HINT in environment.F:882 :: The compiler target flags (generic) used ***
 *** to build this binary cannot exploit all extensions of this CPU model  ***
 *** (x86_avx2). Consider compiler target flags as part of FCFLAGS and     ***
 *** CFLAGS (ARCH file).                                                   ***


 MEMORY| system memory details [Kb]
 MEMORY|                        rank 0           min           max       average
 MEMORY| MemTotal            263914152     263914148     263914156     263914149
 MEMORY| MemFree             246031392     234337916     250955020     245478736
 MEMORY| Buffers                270648        105660        347624        257082
 MEMORY| Cached                5984508       3901948      14936012       5895016
 MEMORY| Slab                  4400580       1464192      13001724       5109733
 MEMORY| SReclaimable           304852        180748        426592        275650
 MEMORY| MemLikelyFree       252591400     243213288     256088048     251906486


 *** Fundamental physical constants (SI units) ***

 *** Literature: B. J. Mohr and B. N. Taylor,
 ***             CODATA recommended values of the fundamental physical
 ***             constants: 2006, Web Version 5.1
 ***             http://physics.nist.gov/constants

 Speed of light in vacuum [m/s]                             2.99792458000000E+08
 Magnetic constant or permeability of vacuum [N/A**2]       1.25663706143592E-06
 Electric constant or permittivity of vacuum [F/m]          8.85418781762039E-12
 Planck constant (h) [J*s]                                  6.62606896000000E-34
 Planck constant (h-bar) [J*s]                              1.05457162825177E-34
 Elementary charge [C]                                      1.60217648700000E-19
 Electron mass [kg]                                         9.10938215000000E-31
 Electron g factor [ ]                                     -2.00231930436220E+00
 Proton mass [kg]                                           1.67262163700000E-27
 Fine-structure constant                                    7.29735253760000E-03
 Rydberg constant [1/m]                                     1.09737315685270E+07
 Avogadro constant [1/mol]                                  6.02214179000000E+23
 Boltzmann constant [J/K]                                   1.38065040000000E-23
 Atomic mass unit [kg]                                      1.66053878200000E-27
 Bohr radius [m]                                            5.29177208590000E-11

 *** Conversion factors ***

 [u] -> [a.u.]                                              1.82288848426455E+03
 [Angstrom] -> [Bohr] = [a.u.]                              1.88972613288564E+00
 [a.u.] = [Bohr] -> [Angstrom]                              5.29177208590000E-01
 [a.u.] -> [s]                                              2.41888432650478E-17
 [a.u.] -> [fs]                                             2.41888432650478E-02
 [a.u.] -> [J]                                              4.35974393937059E-18
 [a.u.] -> [N]                                              8.23872205491840E-08
 [a.u.] -> [K]                                              3.15774647902944E+05
 [a.u.] -> [kJ/mol]                                         2.62549961709828E+03
 [a.u.] -> [kcal/mol]                                       6.27509468713739E+02
 [a.u.] -> [Pa]                                             2.94210107994716E+13
 [a.u.] -> [bar]                                            2.94210107994716E+08
 [a.u.] -> [atm]                                            2.90362800883016E+08
 [a.u.] -> [eV]                                             2.72113838565563E+01
 [a.u.] -> [Hz]                                             6.57968392072181E+15
 [a.u.] -> [1/cm] (wave numbers)                            2.19474631370540E+05
 [a.u./Bohr**2] -> [1/cm]                                   5.14048714338585E+03
 

 CELL_TOP| Volume [angstrom^3]:                                     12889.705604
 CELL_TOP| Vector a [angstrom    31.500     0.000     0.000   |a| =    31.500000
 CELL_TOP| Vector b [angstrom   -15.750    27.280     0.000   |b| =    31.500000
 CELL_TOP| Vector c [angstrom     0.000     0.000    15.000   |c| =    15.000000
 CELL_TOP| Angle (b,c), alpha [degree]:                                90.000000
 CELL_TOP| Angle (a,c), beta  [degree]:                                90.000000
 CELL_TOP| Angle (a,b), gamma [degree]:                               120.000000
 CELL_TOP| Numerically orthorhombic:                                          NO
 CELL_TOP| Periodicity                                                        XY

 CELL_UC| Volume [angstrom^3]:                                        128.897056
 CELL_UC| Vector a [angstrom]     3.150     0.000     0.000   |a| =     3.150000
 CELL_UC| Vector b [angstrom]    -1.575     2.728     0.000   |b| =     3.150000
 CELL_UC| Vector c [angstrom]     0.000     0.000    15.000   |c| =    15.000000
 CELL_UC| Angle (b,c), alpha [degree]:                                 90.000000
 CELL_UC| Angle (a,c), beta  [degree]:                                 90.000000
 CELL_UC| Angle (a,b), gamma [degree]:                                120.000000
 CELL_UC| Numerically orthorhombic:                                           NO
 CELL_UC| Periodicity                                                         XY

 GENERATE|  Preliminary Number of Bonds generated:                             0
 GENERATE|  Achieved consistency in connectivity generation.

 CELL| Volume [angstrom^3]:                                         12889.705604
 CELL| Vector a [angstrom]:      31.500     0.000     0.000   |a| =    31.500000
 CELL| Vector b [angstrom]:     -15.750    27.280     0.000   |b| =    31.500000
 CELL| Vector c [angstrom]:       0.000     0.000    15.000   |c| =    15.000000
 CELL| Angle (b,c), alpha [degree]:                                    90.000000
 CELL| Angle (a,c), beta  [degree]:                                    90.000000
 CELL| Angle (a,b), gamma [degree]:                                   120.000000
 CELL| Numerically orthorhombic:                                              NO
 CELL| Periodicity                                                            XY

 CELL_REF| Volume [angstrom^3]:                                     12889.705604
 CELL_REF| Vector a [angstrom    31.500     0.000     0.000   |a| =    31.500000
 CELL_REF| Vector b [angstrom   -15.750    27.280     0.000   |b| =    31.500000
 CELL_REF| Vector c [angstrom     0.000     0.000    15.000   |c| =    15.000000
 CELL_REF| Angle (b,c), alpha [degree]:                                90.000000
 CELL_REF| Angle (a,c), beta  [degree]:                                90.000000
 CELL_REF| Angle (a,b), gamma [degree]:                               120.000000
 CELL_REF| Numerically orthorhombic:                                          NO
 CELL_REF| Periodicity                                                        XY

 *******************************************************************************
 *******************************************************************************
 **                                                                           **
 **     #####                         ##              ##                      **
 **    ##   ##            ##          ##              ##                      **
 **   ##     ##                       ##            ######                    **
 **   ##     ##  ##   ##  ##   #####  ##  ##   ####   ##    #####    #####    **
 **   ##     ##  ##   ##  ##  ##      ## ##   ##      ##   ##   ##  ##   ##   **
 **   ##  ## ##  ##   ##  ##  ##      ####     ###    ##   ######   ######    **
 **    ##  ###   ##   ##  ##  ##      ## ##      ##   ##   ##       ##        **
 **     #######   #####   ##   #####  ##  ##  ####    ##    #####   ##        **
 **           ##                                                    ##        **
 **                                                                           **
 **                                                ... make the atoms dance   **
 **                                                                           **
 **            Copyright (C) by CP2K developers group (2000-2023)             **
 **                      J. Chem. Phys. 152, 194103 (2020)                    **
 **                                                                           **
 *******************************************************************************

 DFT| Spin restricted Kohn-Sham (RKS) calculation                            RKS
 DFT| Multiplicity                                                             1
 DFT| Number of spin states                                                    1
 DFT| Charge                                                                   0
 DFT| Self-interaction correction (SIC)                                       NO
 DFT| Cutoffs: density                                              1.000000E-10
 DFT|          gradient                                             1.000000E-10
 DFT|          tau                                                  1.000000E-10
 DFT|          cutoff_smoothing_range                               0.000000E+00
 DFT| XC density smoothing                                                  NONE
 DFT| XC derivatives                                                          PW

 FUNCTIONAL| PADE:
 FUNCTIONAL| S. Goedecker, M. Teter and J. Hutter, Phys. Rev. B 54, 1703 (1996) 


 QS| Method:                                                                 GPW
 QS| Density plane wave grid type                        NON-SPHERICAL FULLSPACE
 QS| Number of grid levels:                                                    4
 QS| Density cutoff [a.u.]:                                                250.0
 QS| Multi grid cutoff [a.u.]: 1) grid level                               250.0
 QS|                           2) grid level                                83.3
 QS|                           3) grid level                                27.8
 QS|                           4) grid level                                 9.3
 QS| Grid level progression factor:                                          3.0
 QS| Relative density cutoff [a.u.]:                                        50.0
 QS| Interaction thresholds: eps_pgf_orb:                                1.0E-40
 QS|                         eps_filter_matrix:                          0.0E+00
 QS|                         eps_core_charge:                            1.0E-42
 QS|                         eps_rho_gspace:                             1.0E-40
 QS|                         eps_rho_rspace:                             1.0E-40
 QS|                         eps_gvg_rspace:                             1.0E-20
 QS|                         eps_ppl:                                    1.0E-02
 QS|                         eps_ppnl:                                   1.0E-22


 ATOMIC KIND INFORMATION

  1. Atomic kind: Mo                                    Number of atoms:     100

     Orbital Basis Set                                       TZV2P-MOLOPT-SR-GTH

       Number of orbital shell sets:                                           1
       Number of orbital shells:                                              12
       Number of primitive Cartesian functions:                                7
       Number of Cartesian basis functions:                                   51
       Number of spherical basis functions:                                   42
       Norm type:                                                              2

       Normalised Cartesian orbitals:

                        Set   Shell   Orbital            Exponent    Coefficient

                          1       1    2s                2.540273      -1.321231
                                                         1.999996       0.386074
                                                         0.894040       0.632184
                                                         0.439257       0.196926
                                                         0.189498       0.017023
                                                         0.083802      -0.027705
                                                         0.052949      -0.026613

                          1       2    3s                2.540273       0.226721
                                                         1.999996      -0.073158
                                                         0.894040      -0.053559
                                                         0.439257       0.091291
                                                         0.189498      -0.109922
                                                         0.083802      -0.065996
                                                         0.052949      -0.004390

                          1       3    4s                2.540273       0.151037
                                                         1.999996      -0.934259
                                                         0.894040       0.277268
                                                         0.439257      -0.018911
                                                         0.189498       0.203898
                                                         0.083802      -0.107599
                                                         0.052949       0.083646

                          1       4    5s                2.540273      -0.119990
                                                         1.999996       0.896807
                                                         0.894040       0.455473
                                                         0.439257      -0.443578
                                                         0.189498      -0.167165
                                                         0.083802      -0.001095
                                                         0.052949       0.077321

                          1       5    3px               2.540273       2.622682
                                                         1.999996      -2.341890
                                                         0.894040      -0.583031
                                                         0.439257      -0.176984
                                                         0.189498      -0.015780
                                                         0.083802      -0.000908
                                                         0.052949      -0.000447
                          1       5    3py               2.540273       2.622682
                                                         1.999996      -2.341890
                                                         0.894040      -0.583031
                                                         0.439257      -0.176984
                                                         0.189498      -0.015780
                                                         0.083802      -0.000908
                                                         0.052949      -0.000447
                          1       5    3pz               2.540273       2.622682
                                                         1.999996      -2.341890
                                                         0.894040      -0.583031
                                                         0.439257      -0.176984
                                                         0.189498      -0.015780
                                                         0.083802      -0.000908
                                                         0.052949      -0.000447

                          1       6    4px               2.540273      -0.260015
                                                         1.999996       0.590944
                                                         0.894040      -0.043681
                                                         0.439257      -0.117520
                                                         0.189498      -0.105390
                                                         0.083802      -0.009391
                                                         0.052949      -0.005803
                          1       6    4py               2.540273      -0.260015
                                                         1.999996       0.590944
                                                         0.894040      -0.043681
                                                         0.439257      -0.117520
                                                         0.189498      -0.105390
                                                         0.083802      -0.009391
                                                         0.052949      -0.005803
                          1       6    4pz               2.540273      -0.260015
                                                         1.999996       0.590944
                                                         0.894040      -0.043681
                                                         0.439257      -0.117520
                                                         0.189498      -0.105390
                                                         0.083802      -0.009391
                                                         0.052949      -0.005803

                          1       7    5px               2.540273      -0.353254
                                                         1.999996       0.905805
                                                         0.894040       0.246303
                                                         0.439257      -0.518036
                                                         0.189498       0.039707
                                                         0.083802      -0.012470
                                                         0.052949       0.039500
                          1       7    5py               2.540273      -0.353254
                                                         1.999996       0.905805
                                                         0.894040       0.246303
                                                         0.439257      -0.518036
                                                         0.189498       0.039707
                                                         0.083802      -0.012470
                                                         0.052949       0.039500
                          1       7    5pz               2.540273      -0.353254
                                                         1.999996       0.905805
                                                         0.894040       0.246303
                                                         0.439257      -0.518036
                                                         0.189498       0.039707
                                                         0.083802      -0.012470
                                                         0.052949       0.039500

                          1       8    4dx2              2.540273      -1.497042
                                                         1.999996       1.923448
                                                         0.894040       0.383738
                                                         0.439257       0.135280
                                                         0.189498       0.028294
                                                         0.083802       0.001439
                                                         0.052949       0.000783
                          1       8    4dxy              2.540273      -2.592953
                                                         1.999996       3.331510
                                                         0.894040       0.664653
                                                         0.439257       0.234311
                                                         0.189498       0.049007
                                                         0.083802       0.002493
                                                         0.052949       0.001357
                          1       8    4dxz              2.540273      -2.592953
                                                         1.999996       3.331510
                                                         0.894040       0.664653
                                                         0.439257       0.234311
                                                         0.189498       0.049007
                                                         0.083802       0.002493
                                                         0.052949       0.001357
                          1       8    4dy2              2.540273      -1.497042
                                                         1.999996       1.923448
                                                         0.894040       0.383738
                                                         0.439257       0.135280
                                                         0.189498       0.028294
                                                         0.083802       0.001439
                                                         0.052949       0.000783
                          1       8    4dyz              2.540273      -2.592953
                                                         1.999996       3.331510
                                                         0.894040       0.664653
                                                         0.439257       0.234311
                                                         0.189498       0.049007
                                                         0.083802       0.002493
                                                         0.052949       0.001357
                          1       8    4dz2              2.540273      -1.497042
                                                         1.999996       1.923448
                                                         0.894040       0.383738
                                                         0.439257       0.135280
                                                         0.189498       0.028294
                                                         0.083802       0.001439
                                                         0.052949       0.000783

                          1       9    5dx2              2.540273       0.864975
                                                         1.999996      -1.148376
                                                         0.894040      -0.357133
                                                         0.439257      -0.080387
                                                         0.189498       0.054574
                                                         0.083802       0.005397
                                                         0.052949       0.003242
                          1       9    5dxy              2.540273       1.498181
                                                         1.999996      -1.989045
                                                         0.894040      -0.618573
                                                         0.439257      -0.139234
                                                         0.189498       0.094525
                                                         0.083802       0.009348
                                                         0.052949       0.005615
                          1       9    5dxz              2.540273       1.498181
                                                         1.999996      -1.989045
                                                         0.894040      -0.618573
                                                         0.439257      -0.139234
                                                         0.189498       0.094525
                                                         0.083802       0.009348
                                                         0.052949       0.005615
                          1       9    5dy2              2.540273       0.864975
                                                         1.999996      -1.148376
                                                         0.894040      -0.357133
                                                         0.439257      -0.080387
                                                         0.189498       0.054574
                                                         0.083802       0.005397
                                                         0.052949       0.003242
                          1       9    5dyz              2.540273       1.498181
                                                         1.999996      -1.989045
                                                         0.894040      -0.618573
                                                         0.439257      -0.139234
                                                         0.189498       0.094525
                                                         0.083802       0.009348
                                                         0.052949       0.005615
                          1       9    5dz2              2.540273       0.864975
                                                         1.999996      -1.148376
                                                         0.894040      -0.357133
                                                         0.439257      -0.080387
                                                         0.189498       0.054574
                                                         0.083802       0.005397
                                                         0.052949       0.003242

                          1      10    6dx2              2.540273       1.432307
                                                         1.999996      -1.051013
                                                         0.894040       1.746108
                                                         0.439257      -0.345728
                                                         0.189498       0.011925
                                                         0.083802      -0.031871
                                                         0.052949       0.011210
                          1      10    6dxy              2.540273       2.480828
                                                         1.999996      -1.820408
                                                         0.894040       3.024348
                                                         0.439257      -0.598818
                                                         0.189498       0.020654
                                                         0.083802      -0.055202
                                                         0.052949       0.019417
                          1      10    6dxz              2.540273       2.480828
                                                         1.999996      -1.820408
                                                         0.894040       3.024348
                                                         0.439257      -0.598818
                                                         0.189498       0.020654
                                                         0.083802      -0.055202
                                                         0.052949       0.019417
                          1      10    6dy2              2.540273       1.432307
                                                         1.999996      -1.051013
                                                         0.894040       1.746108
                                                         0.439257      -0.345728
                                                         0.189498       0.011925
                                                         0.083802      -0.031871
                                                         0.052949       0.011210
                          1      10    6dyz              2.540273       2.480828
                                                         1.999996      -1.820408
                                                         0.894040       3.024348
                                                         0.439257      -0.598818
                                                         0.189498       0.020654
                                                         0.083802      -0.055202
                                                         0.052949       0.019417
                          1      10    6dz2              2.540273       1.432307
                                                         1.999996      -1.051013
                                                         0.894040       1.746108
                                                         0.439257      -0.345728
                                                         0.189498       0.011925
                                                         0.083802      -0.031871
                                                         0.052949       0.011210

                          1      11    5fx3              2.540273       0.878054
                                                         1.999996      -0.786839
                                                         0.894040      -0.419447
                                                         0.439257      -0.111386
                                                         0.189498      -0.007752
                                                         0.083802      -0.000849
                                                         0.052949       0.000161
                          1      11    5fx2y             2.540273       1.963389
                                                         1.999996      -1.759425
                                                         0.894040      -0.937912
                                                         0.439257      -0.249068
                                                         0.189498      -0.017335
                                                         0.083802      -0.001899
                                                         0.052949       0.000360
                          1      11    5fx2z             2.540273       1.963389
                                                         1.999996      -1.759425
                                                         0.894040      -0.937912
                                                         0.439257      -0.249068
                                                         0.189498      -0.017335
                                                         0.083802      -0.001899
                                                         0.052949       0.000360
                          1      11    5fxy2             2.540273       1.963389
                                                         1.999996      -1.759425
                                                         0.894040      -0.937912
                                                         0.439257      -0.249068
                                                         0.189498      -0.017335
                                                         0.083802      -0.001899
                                                         0.052949       0.000360
                          1      11    5fxyz             2.540273       3.400689
                                                         1.999996      -3.047414
                                                         0.894040      -1.624512
                                                         0.439257      -0.431398
                                                         0.189498      -0.030025
                                                         0.083802      -0.003290
                                                         0.052949       0.000623
                          1      11    5fxz2             2.540273       1.963389
                                                         1.999996      -1.759425
                                                         0.894040      -0.937912
                                                         0.439257      -0.249068
                                                         0.189498      -0.017335
                                                         0.083802      -0.001899
                                                         0.052949       0.000360
                          1      11    5fy3              2.540273       0.878054
                                                         1.999996      -0.786839
                                                         0.894040      -0.419447
                                                         0.439257      -0.111386
                                                         0.189498      -0.007752
                                                         0.083802      -0.000849
                                                         0.052949       0.000161
                          1      11    5fy2z             2.540273       1.963389
                                                         1.999996      -1.759425
                                                         0.894040      -0.937912
                                                         0.439257      -0.249068
                                                         0.189498      -0.017335
                                                         0.083802      -0.001899
                                                         0.052949       0.000360
                          1      11    5fyz2             2.540273       1.963389
                                                         1.999996      -1.759425
                                                         0.894040      -0.937912
                                                         0.439257      -0.249068
                                                         0.189498      -0.017335
                                                         0.083802      -0.001899
                                                         0.052949       0.000360
                          1      11    5fz3              2.540273       0.878054
                                                         1.999996      -0.786839
                                                         0.894040      -0.419447
                                                         0.439257      -0.111386
                                                         0.189498      -0.007752
                                                         0.083802      -0.000849
                                                         0.052949       0.000161

                          1      12    6fx3              2.540273       0.396157
                                                         1.999996      -0.370026
                                                         0.894040       0.516215
                                                         0.439257      -0.036427
                                                         0.189498      -0.015509
                                                         0.083802      -0.000859
                                                         0.052949      -0.001005
                          1      12    6fx2y             2.540273       0.885834
                                                         1.999996      -0.827403
                                                         0.894040       1.154292
                                                         0.439257      -0.081452
                                                         0.189498      -0.034678
                                                         0.083802      -0.001921
                                                         0.052949      -0.002247
                          1      12    6fx2z             2.540273       0.885834
                                                         1.999996      -0.827403
                                                         0.894040       1.154292
                                                         0.439257      -0.081452
                                                         0.189498      -0.034678
                                                         0.083802      -0.001921
                                                         0.052949      -0.002247
                          1      12    6fxy2             2.540273       0.885834
                                                         1.999996      -0.827403
                                                         0.894040       1.154292
                                                         0.439257      -0.081452
                                                         0.189498      -0.034678
                                                         0.083802      -0.001921
                                                         0.052949      -0.002247
                          1      12    6fxyz             2.540273       1.534310
                                                         1.999996      -1.433104
                                                         0.894040       1.999293
                                                         0.439257      -0.141080
                                                         0.189498      -0.060064
                                                         0.083802      -0.003326
                                                         0.052949      -0.003891
                          1      12    6fxz2             2.540273       0.885834
                                                         1.999996      -0.827403
                                                         0.894040       1.154292
                                                         0.439257      -0.081452
                                                         0.189498      -0.034678
                                                         0.083802      -0.001921
                                                         0.052949      -0.002247
                          1      12    6fy3              2.540273       0.396157
                                                         1.999996      -0.370026
                                                         0.894040       0.516215
                                                         0.439257      -0.036427
                                                         0.189498      -0.015509
                                                         0.083802      -0.000859
                                                         0.052949      -0.001005
                          1      12    6fy2z             2.540273       0.885834
                                                         1.999996      -0.827403
                                                         0.894040       1.154292
                                                         0.439257      -0.081452
                                                         0.189498      -0.034678
                                                         0.083802      -0.001921
                                                         0.052949      -0.002247
                          1      12    6fyz2             2.540273       0.885834
                                                         1.999996      -0.827403
                                                         0.894040       1.154292
                                                         0.439257      -0.081452
                                                         0.189498      -0.034678
                                                         0.083802      -0.001921
                                                         0.052949      -0.002247
                          1      12    6fz3              2.540273       0.396157
                                                         1.999996      -0.370026
                                                         0.894040       0.516215
                                                         0.439257      -0.036427
                                                         0.189498      -0.015509
                                                         0.083802      -0.000859
                                                         0.052949      -0.001005

     RI Auxiliary Basis Set                                 def2-SVP-RIFIT-mod-2

       Number of orbital shell sets:                                          17
       Number of orbital shells:                                              17
       Number of primitive Cartesian functions:                               17
       Number of Cartesian basis functions:                                   91
       Number of spherical basis functions:                                   69
       Norm type:                                                              2

       Normalised Cartesian orbitals:

                        Set   Shell   Orbital            Exponent    Coefficient

                          1       1    1s                0.185545       0.201487

                          2       1    1px               0.223731       0.219330
                          2       1    1py               0.223731       0.219330
                          2       1    1pz               0.223731       0.219330

                          3       1    1dx2              0.346956       0.258160
                          3       1    1dxy              0.346956       0.447147
                          3       1    1dxz              0.346956       0.447147
                          3       1    1dy2              0.346956       0.258160
                          3       1    1dyz              0.346956       0.447147
                          3       1    1dz2              0.346956       0.258160

                          4       1    1s                0.360392       0.331506

                          5       1    1fx3              0.410523       0.198593
                          5       1    1fx2y             0.410523       0.444066
                          5       1    1fx2z             0.410523       0.444066
                          5       1    1fxy2             0.410523       0.444066
                          5       1    1fxyz             0.410523       0.769146
                          5       1    1fxz2             0.410523       0.444066
                          5       1    1fy3              0.410523       0.198593
                          5       1    1fy2z             0.410523       0.444066
                          5       1    1fyz2             0.410523       0.444066
                          5       1    1fz3              0.410523       0.198593

                          6       1    1px               0.498778       0.597481
                          6       1    1py               0.498778       0.597481
                          6       1    1pz               0.498778       0.597481

                          7       1    1gx4              0.570000       0.237187
                          7       1    1gx3y             0.570000       0.627538
                          7       1    1gx3z             0.570000       0.627538
                          7       1    1gx2y2            0.570000       0.810149
                          7       1    1gx2yz            0.570000       1.403218
                          7       1    1gx2z2            0.570000       0.810149
                          7       1    1gxy3             0.570000       0.627538
                          7       1    1gxy2z            0.570000       1.403218
                          7       1    1gxyz2            0.570000       1.403218
                          7       1    1gxz3             0.570000       0.627538
                          7       1    1gy4              0.570000       0.237187
                          7       1    1gy3z             0.570000       0.627538
                          7       1    1gy2z2            0.570000       0.810149
                          7       1    1gyz3             0.570000       0.627538
                          7       1    1gz4              0.570000       0.237187

                          8       1    1dx2              0.576698       0.628158
                          8       1    1dxy              0.576698       1.088002
                          8       1    1dxz              0.576698       1.088002
                          8       1    1dy2              0.576698       0.628158
                          8       1    1dyz              0.576698       1.088002
                          8       1    1dz2              0.576698       0.628158

                          9       1    1s                0.619083       0.497418

                         10       1    1s                1.092167       0.761424

                         11       1    1fx3              1.103628       1.837832
                         11       1    1fx2y             1.103628       4.109516
                         11       1    1fx2z             1.103628       4.109516
                         11       1    1fxy2             1.103628       4.109516
                         11       1    1fxyz             1.103628       7.117891
                         11       1    1fxz2             1.103628       4.109516
                         11       1    1fy3              1.103628       1.837832
                         11       1    1fy2z             1.103628       4.109516
                         11       1    1fyz2             1.103628       4.109516
                         11       1    1fz3              1.103628       1.837832

                         12       1    1px               1.390701       2.152694
                         12       1    1py               1.390701       2.152694
                         12       1    1pz               1.390701       2.152694

                         13       1    1dx2              1.439171       3.112475
                         13       1    1dxy              1.439171       5.390965
                         13       1    1dxz              1.439171       5.390965
                         13       1    1dy2              1.439171       3.112475
                         13       1    1dyz              1.439171       5.390965
                         13       1    1dz2              1.439171       3.112475

                         14       1    1gx4              1.615953       4.164995
                         14       1    1gx3y             1.615953      11.019542
                         14       1    1gx3z             1.615953      11.019542
                         14       1    1gx2y2            1.615953      14.226167
                         14       1    1gx2yz            1.615953      24.640444
                         14       1    1gx2z2            1.615953      14.226167
                         14       1    1gxy3             1.615953      11.019542
                         14       1    1gxy2z            1.615953      24.640444
                         14       1    1gxyz2            1.615953      24.640444
                         14       1    1gxz3             1.615953      11.019542
                         14       1    1gy4              1.615953       4.164995
                         14       1    1gy3z             1.615953      11.019542
                         14       1    1gy2z2            1.615953      14.226167
                         14       1    1gyz3             1.615953      11.019542
                         14       1    1gz4              1.615953       4.164995

                         15       1    1px               2.100661       3.604831
                         15       1    1py               2.100661       3.604831
                         15       1    1pz               2.100661       3.604831

                         16       1    1s                2.197983       1.286555

                         17       1    1dx2              2.302596       7.084198
                         17       1    1dxy              2.302596      12.270190
                         17       1    1dxz              2.302596      12.270190
                         17       1    1dy2              2.302596       7.084198
                         17       1    1dyz              2.302596      12.270190
                         17       1    1dz2              2.302596       7.084198

       Atomic covalent radius [Angstrom]:                                  1.300

       Atomic van der Waals radius [Angstrom]:                             1.670

     GTH Potential information for                                  GTH-PADE-q14

       Description:                       Goedecker-Teter-Hutter pseudopotential
                                           Goedecker et al., PRB 54, 1703 (1996)
                                          Hartwigsen et al., PRB 58, 3641 (1998)
                                                      Krack, TCA 114, 145 (2005)

       Gaussian exponent of the core charge distribution:               2.704164
       Electronic configuration (s p d ...):                           3   6   5

       Parameters of the local part of the GTH pseudopotential:

                          rloc        C1          C2          C3          C4
                        0.430000   16.237452    1.496536

       Parameters of the non-local part of the GTH pseudopotential:

                   l      r(l)      h(i,j,l)

                   0    0.376255    3.362426    2.048528
                                    2.048528   -5.289276
                   1    0.361734   -0.379571    1.718923
                                    1.718923   -4.067713
                   2    0.525828   -1.543211   -0.473760
                                   -0.473760    1.074388

  2. Atomic kind: S                                     Number of atoms:     200

     Orbital Basis Set                                          TZV2P-MOLOPT-GTH

       Number of orbital shell sets:                                           1
       Number of orbital shells:                                               8
       Number of primitive Cartesian functions:                                6
       Number of Cartesian basis functions:                                   24
       Number of spherical basis functions:                                   22
       Norm type:                                                              2

       Normalised Cartesian orbitals:

                        Set   Shell   Orbital            Exponent    Coefficient

                          1       1    2s                3.817591       0.157264
                                                         2.362752      -0.510082
                                                         0.861004      -0.067545
                                                         0.417525       0.341507
                                                         0.181514       0.065073
                                                         0.070571       0.000166

                          1       2    3s                3.817591      -0.204385
                                                         2.362752       0.558740
                                                         0.861004       0.301625
                                                         0.417525      -0.627222
                                                         0.181514       0.190853
                                                         0.070571       0.080605

                          1       3    4s                3.817591      -1.028748
                                                         2.362752       1.936036
                                                         0.861004       0.140522
                                                         0.417525      -0.138514
                                                         0.181514       0.081374
                                                         0.070571      -0.058475

                          1       4    3px               3.817591      -0.172386
                                                         2.362752      -0.175607
                                                         0.861004       0.224215
                                                         0.417525       0.286358
                                                         0.181514       0.049699
                                                         0.070571       0.001588
                          1       4    3py               3.817591      -0.172386
                                                         2.362752      -0.175607
                                                         0.861004       0.224215
                                                         0.417525       0.286358
                                                         0.181514       0.049699
                                                         0.070571       0.001588
                          1       4    3pz               3.817591      -0.172386
                                                         2.362752      -0.175607
                                                         0.861004       0.224215
                                                         0.417525       0.286358
                                                         0.181514       0.049699
                                                         0.070571       0.001588

                          1       5    4px               3.817591       0.011373
                                                         2.362752       0.235342
                                                         0.861004      -0.175793
                                                         0.417525      -0.223923
                                                         0.181514       0.115877
                                                         0.070571       0.033489
                          1       5    4py               3.817591       0.011373
                                                         2.362752       0.235342
                                                         0.861004      -0.175793
                                                         0.417525      -0.223923
                                                         0.181514       0.115877
                                                         0.070571       0.033489
                          1       5    4pz               3.817591       0.011373
                                                         2.362752       0.235342
                                                         0.861004      -0.175793
                                                         0.417525      -0.223923
                                                         0.181514       0.115877
                                                         0.070571       0.033489

                          1       6    5px               3.817591      -0.999910
                                                         2.362752       1.827963
                                                         0.861004      -1.566915
                                                         0.417525       0.819066
                                                         0.181514       0.069667
                                                         0.070571      -0.035715
                          1       6    5py               3.817591      -0.999910
                                                         2.362752       1.827963
                                                         0.861004      -1.566915
                                                         0.417525       0.819066
                                                         0.181514       0.069667
                                                         0.070571      -0.035715
                          1       6    5pz               3.817591      -0.999910
                                                         2.362752       1.827963
                                                         0.861004      -1.566915
                                                         0.417525       0.819066
                                                         0.181514       0.069667
                                                         0.070571      -0.035715

                          1       7    4dx2              3.817591       0.133631
                                                         2.362752       0.806297
                                                         0.861004       0.453606
                                                         0.417525       0.175089
                                                         0.181514       0.017666
                                                         0.070571      -0.000330
                          1       7    4dxy              3.817591       0.231456
                                                         2.362752       1.396548
                                                         0.861004       0.785669
                                                         0.417525       0.303263
                                                         0.181514       0.030598
                                                         0.070571      -0.000571
                          1       7    4dxz              3.817591       0.231456
                                                         2.362752       1.396548
                                                         0.861004       0.785669
                                                         0.417525       0.303263
                                                         0.181514       0.030598
                                                         0.070571      -0.000571
                          1       7    4dy2              3.817591       0.133631
                                                         2.362752       0.806297
                                                         0.861004       0.453606
                                                         0.417525       0.175089
                                                         0.181514       0.017666
                                                         0.070571      -0.000330
                          1       7    4dyz              3.817591       0.231456
                                                         2.362752       1.396548
                                                         0.861004       0.785669
                                                         0.417525       0.303263
                                                         0.181514       0.030598
                                                         0.070571      -0.000571
                          1       7    4dz2              3.817591       0.133631
                                                         2.362752       0.806297
                                                         0.861004       0.453606
                                                         0.417525       0.175089
                                                         0.181514       0.017666
                                                         0.070571      -0.000330

                          1       8    5dx2              3.817591      -0.996276
                                                         2.362752       0.744777
                                                         0.861004      -0.970401
                                                         0.417525       0.627373
                                                         0.181514      -0.023567
                                                         0.070571      -0.005923
                          1       8    5dxy              3.817591      -1.725601
                                                         2.362752       1.289991
                                                         0.861004      -1.680783
                                                         0.417525       1.086642
                                                         0.181514      -0.040820
                                                         0.070571      -0.010260
                          1       8    5dxz              3.817591      -1.725601
                                                         2.362752       1.289991
                                                         0.861004      -1.680783
                                                         0.417525       1.086642
                                                         0.181514      -0.040820
                                                         0.070571      -0.010260
                          1       8    5dy2              3.817591      -0.996276
                                                         2.362752       0.744777
                                                         0.861004      -0.970401
                                                         0.417525       0.627373
                                                         0.181514      -0.023567
                                                         0.070571      -0.005923
                          1       8    5dyz              3.817591      -1.725601
                                                         2.362752       1.289991
                                                         0.861004      -1.680783
                                                         0.417525       1.086642
                                                         0.181514      -0.040820
                                                         0.070571      -0.010260
                          1       8    5dz2              3.817591      -0.996276
                                                         2.362752       0.744777
                                                         0.861004      -0.970401
                                                         0.417525       0.627373
                                                         0.181514      -0.023567
                                                         0.070571      -0.005923

     RI Auxiliary Basis Set                                 def2-SVP-RIFIT-mod-1

       Number of orbital shell sets:                                          13
       Number of orbital shells:                                              13
       Number of primitive Cartesian functions:                               13
       Number of Cartesian basis functions:                                   54
       Number of spherical basis functions:                                   45
       Norm type:                                                              2

       Normalised Cartesian orbitals:

                        Set   Shell   Orbital            Exponent    Coefficient

                          1       1    1s                0.197811       0.211396

                          2       1    1dx2              0.242242       0.137672
                          2       1    1dxy              0.242242       0.238455
                          2       1    1dxz              0.242242       0.238455
                          2       1    1dy2              0.242242       0.137672
                          2       1    1dyz              0.242242       0.238455
                          2       1    1dz2              0.242242       0.137672

                          3       1    1px               0.324549       0.349172
                          3       1    1py               0.324549       0.349172
                          3       1    1pz               0.324549       0.349172

                          4       1    1s                0.389135       0.351144

                          5       1    1fx3              0.529340       0.351850
                          5       1    1fx2y             0.529340       0.786760
                          5       1    1fx2z             0.529340       0.786760
                          5       1    1fxy2             0.529340       0.786760
                          5       1    1fxyz             0.529340       1.362708
                          5       1    1fxz2             0.529340       0.786760
                          5       1    1fy3              0.529340       0.351850
                          5       1    1fy2z             0.529340       0.786760
                          5       1    1fyz2             0.529340       0.786760
                          5       1    1fz3              0.529340       0.351850

                          6       1    1dx2              0.603367       0.679871
                          6       1    1dxy              0.603367       1.177572
                          6       1    1dxz              0.603367       1.177572
                          6       1    1dy2              0.603367       0.679871
                          6       1    1dyz              0.603367       1.177572
                          6       1    1dz2              0.603367       0.679871

                          7       1    1px               0.631252       0.802035
                          7       1    1py               0.631252       0.802035
                          7       1    1pz               0.631252       0.802035

                          8       1    1s                0.936032       0.678232

                          9       1    1dx2              1.115385       1.992520
                          9       1    1dxy              1.115385       3.451146
                          9       1    1dxz              1.115385       3.451146
                          9       1    1dy2              1.115385       1.992520
                          9       1    1dyz              1.115385       3.451146
                          9       1    1dz2              1.115385       1.992520

                         10       1    1fx3              1.132321       1.947088
                         10       1    1fx2y             1.132321       4.353822
                         10       1    1fx2z             1.132321       4.353822
                         10       1    1fxy2             1.132321       4.353822
                         10       1    1fxyz             1.132321       7.541040
                         10       1    1fxz2             1.132321       4.353822
                         10       1    1fy3              1.132321       1.947088
                         10       1    1fy2z             1.132321       4.353822
                         10       1    1fyz2             1.132321       4.353822
                         10       1    1fz3              1.132321       1.947088

                         11       1    1px               1.173306       1.740620
                         11       1    1py               1.173306       1.740620
                         11       1    1pz               1.173306       1.740620

                         12       1    1s                2.064006       1.227279

                         13       1    1px               2.625789       4.764474
                         13       1    1py               2.625789       4.764474
                         13       1    1pz               2.625789       4.764474

       Atomic covalent radius [Angstrom]:                                  1.020

       Atomic van der Waals radius [Angstrom]:                             1.800

     GTH Potential information for                                   GTH-PADE-q6

       Description:                       Goedecker-Teter-Hutter pseudopotential
                                           Goedecker et al., PRB 54, 1703 (1996)
                                          Hartwigsen et al., PRB 58, 3641 (1998)
                                                      Krack, TCA 114, 145 (2005)

       Gaussian exponent of the core charge distribution:               2.834467
       Electronic configuration (s p d ...):                               2   4

       Parameters of the local part of the GTH pseudopotential:

                          rloc        C1          C2          C3          C4
                        0.420000   -6.554492

       Parameters of the non-local part of the GTH pseudopotential:

                   l      r(l)      h(i,j,l)

                   0    0.361757    7.905303   -1.731881
                                   -1.731881    4.471698
                   1    0.405285    3.866579


 MOLECULE KIND INFORMATION


 All atoms are their own molecule, skipping detailed information


 TOTAL NUMBERS AND MAXIMUM NUMBERS

  Total number of            - Atomic kinds:                                   2
                             - Atoms:                                        300
                             - Shell sets:                                   300
                             - Shells:                                      2800
                             - Primitive Cartesian functions:               1900
                             - Cartesian basis functions:                   9900
                             - Spherical basis functions:                   8600

  Maximum angular momentum of- Orbital basis functions:                        3
                             - Local part of the GTH pseudopotential:          2
                             - Non-local part of the GTH pseudopotential:      4


 MODULE QUICKSTEP: ATOMIC COORDINATES IN ANGSTROM

   Atom Kind Element         X             Y             Z       Z(eff)     Mass
      1    1 Mo   42      0.000000      1.818650      3.075000  14.0000  95.9600
      2    2 S    16      0.000000      3.637310      1.488300   6.0000  32.0650
      3    2 S    16      0.000000      3.637310      4.661700   6.0000  32.0650
      4    1 Mo   42      3.150000      1.818650      3.075000  14.0000  95.9600
      5    2 S    16      3.150000      3.637310      1.488300   6.0000  32.0650
      6    2 S    16      3.150000      3.637310      4.661700   6.0000  32.0650
      7    1 Mo   42      6.300000      1.818650      3.075000  14.0000  95.9600
      8    2 S    16      6.300000      3.637310      1.488300   6.0000  32.0650
      9    2 S    16      6.300000      3.637310      4.661700   6.0000  32.0650
     10    1 Mo   42      9.450000      1.818650      3.075000  14.0000  95.9600
     11    2 S    16      9.450000      3.637310      1.488300   6.0000  32.0650
     12    2 S    16      9.450000      3.637310      4.661700   6.0000  32.0650
     13    1 Mo   42     12.600000      1.818650      3.075000  14.0000  95.9600
     14    2 S    16     12.600000      3.637310      1.488300   6.0000  32.0650
     15    2 S    16     12.600000      3.637310      4.661700   6.0000  32.0650
     16    1 Mo   42     15.750000      1.818650      3.075000  14.0000  95.9600
     17    2 S    16     15.750000      3.637310      1.488300   6.0000  32.0650
     18    2 S    16     15.750000      3.637310      4.661700   6.0000  32.0650
     19    1 Mo   42     18.900000      1.818650      3.075000  14.0000  95.9600
     20    2 S    16     18.900000      3.637310      1.488300   6.0000  32.0650
     21    2 S    16     18.900000      3.637310      4.661700   6.0000  32.0650
     22    1 Mo   42     22.050000      1.818650      3.075000  14.0000  95.9600
     23    2 S    16     22.050000      3.637310      1.488300   6.0000  32.0650
     24    2 S    16     22.050000      3.637310      4.661700   6.0000  32.0650
     25    1 Mo   42     25.200000      1.818650      3.075000  14.0000  95.9600
     26    2 S    16     25.200000      3.637310      1.488300   6.0000  32.0650
     27    2 S    16     25.200000      3.637310      4.661700   6.0000  32.0650
     28    1 Mo   42     28.350000      1.818650      3.075000  14.0000  95.9600
     29    2 S    16     28.350000      3.637310      1.488300   6.0000  32.0650
     30    2 S    16     28.350000      3.637310      4.661700   6.0000  32.0650
     31    1 Mo   42     -1.575000      4.546630      3.075000  14.0000  95.9600
     32    2 S    16     -1.575000      6.365290      1.488300   6.0000  32.0650
     33    2 S    16     -1.575000      6.365290      4.661700   6.0000  32.0650
     34    1 Mo   42      1.575000      4.546630      3.075000  14.0000  95.9600
     35    2 S    16      1.575000      6.365290      1.488300   6.0000  32.0650
     36    2 S    16      1.575000      6.365290      4.661700   6.0000  32.0650
     37    1 Mo   42      4.725000      4.546630      3.075000  14.0000  95.9600
     38    2 S    16      4.725000      6.365290      1.488300   6.0000  32.0650
     39    2 S    16      4.725000      6.365290      4.661700   6.0000  32.0650
     40    1 Mo   42      7.875000      4.546630      3.075000  14.0000  95.9600
     41    2 S    16      7.875000      6.365290      1.488300   6.0000  32.0650
     42    2 S    16      7.875000      6.365290      4.661700   6.0000  32.0650
     43    1 Mo   42     11.025000      4.546630      3.075000  14.0000  95.9600
     44    2 S    16     11.025000      6.365290      1.488300   6.0000  32.0650
     45    2 S    16     11.025000      6.365290      4.661700   6.0000  32.0650
     46    1 Mo   42     14.175000      4.546630      3.075000  14.0000  95.9600
     47    2 S    16     14.175000      6.365290      1.488300   6.0000  32.0650
     48    2 S    16     14.175000      6.365290      4.661700   6.0000  32.0650
     49    1 Mo   42     17.325000      4.546630      3.075000  14.0000  95.9600
     50    2 S    16     17.325000      6.365290      1.488300   6.0000  32.0650
     51    2 S    16     17.325000      6.365290      4.661700   6.0000  32.0650
     52    1 Mo   42     20.475000      4.546630      3.075000  14.0000  95.9600
     53    2 S    16     20.475000      6.365290      1.488300   6.0000  32.0650
     54    2 S    16     20.475000      6.365290      4.661700   6.0000  32.0650
     55    1 Mo   42     23.625000      4.546630      3.075000  14.0000  95.9600
     56    2 S    16     23.625000      6.365290      1.488300   6.0000  32.0650
     57    2 S    16     23.625000      6.365290      4.661700   6.0000  32.0650
     58    1 Mo   42     26.775000      4.546630      3.075000  14.0000  95.9600
     59    2 S    16     26.775000      6.365290      1.488300   6.0000  32.0650
     60    2 S    16     26.775000      6.365290      4.661700   6.0000  32.0650
     61    1 Mo   42     -3.150000      7.274610      3.075000  14.0000  95.9600
[...]
 flops inhomo. stacks               1251605334400     100.0%      0.0%      0.0%
 flops total                        43.427522E+12       2.9%     97.1%      0.0%
 flops max/rank                     47.743532E+09       2.9%     97.1%      0.0%
 matmuls inhomo. stacks                    154320     100.0%      0.0%      0.0%
 matmuls total                          236443200       0.1%     99.9%      0.0%
 number of processed stacks              73373658       0.2%     99.8%      0.0%
 average stack size                                     1.0       3.2       0.0
 marketing flops                    12.617568E+12
 -------------------------------------------------------------------------------
 # multiplications                             67
 max memory usage/rank             892.006400E+06
 # max total images/rank                        5
 # max 3D layers                                1
 # MPI messages exchanged                13207040
 MPI messages size (bytes):
  total size                         3.717947E+12
  min size                           0.000000E+00
  max size                         639.360000E+03
  average size                     281.512500E+03
 MPI breakdown and total messages size (bytes):
             size <=      128               79200                        0
       128 < size <=     8192                   0                        0
      8192 < size <=    32768               12075                240976800
     32768 < size <=   131072             6340725             585943279200
    131072 < size <=  4194304             6775040            3131762240000
   4194304 < size <= 16777216                   0                        0
  16777216 < size                               0                        0
 -------------------------------------------------------------------------------

 *** WARNING in dbcsr_mm.F:290 :: Using a non-square number of MPI ranks   ***
 *** might lead to poor performance. Used ranks: 1280 Suggested: 1296 2601 ***

 -------------------------------------------------------------------------------
 -                                                                             -
 -                      DBCSR MESSAGE PASSING PERFORMANCE                      -
 -                                                                             -
 -------------------------------------------------------------------------------
 ROUTINE             CALLS      AVE VOLUME [Bytes]
 MP_Bcast              123                     12.
 MP_Allreduce          727                     14.
 MP_Alltoall        100823                4230644.
 MP_ISend            21440                 136345.
 MP_IRecv            21440                 135508.
 -------------------------------------------------------------------------------

 -------------------------------------------------------------------------------
 -                                                                             -
 -                                DBM STATISTICS                               -
 -                                                                             -
 -------------------------------------------------------------------------------
    M  x    N  x    K                                          COUNT     PERCENT
   ??  x >999  x   ??                                     1954590000       0.12%
    ?  x    ?  x >999                                    35847342073       2.15%
    ?  x    ?  x  ???                                   156103712653       9.37%
   ??  x   ??  x >999                                     1400930710       0.08%
   ??  x  ???  x    ?                                    44209475346       2.65%
   ??  x   ??  x  ???                                   202917804028      12.18%
   ??  x >999  x    ?                                     9583162666       0.58%
    ?  x  ???  x    ?                                   250042883976      15.01%
   ??  x  ???  x   ??                                     8976000000       0.54%
    ?  x  ???  x   ??                                    50830256522       3.05%
  ???  x   ??  x   ??                                   213792308372      12.83%
   ??  x    ?  x >999                                     7122326595       0.43%
    ?  x   ??  x >999                                     7058774330       0.42%
    ?  x >999  x    ?                                    54202864069       3.25%
    ?  x    ?  x    ?                                   547987285191      32.89%
    ?  x >999  x   ??                                    11068409362       0.66%
   ??  x    ?  x  ???                                    31646535984       1.90%
    ?  x   ??  x  ???                                    31201477421       1.87%
 -------------------------------------------------------------------------------

 -------------------------------------------------------------------------------
 -                                                                             -
 -                                GRID STATISTICS                              -
 -                                                                             -
 -------------------------------------------------------------------------------
 LP    KERNEL             BACKEND                              COUNT     PERCENT
 5     collocate general  REF                               57142800      24.31%
 5     integrate general  REF                               57142800      24.31%
 4     collocate general  REF                               39006000      16.60%
 4     integrate general  REF                               39006000      16.60%
 6     collocate general  REF                               20796600       8.85%
 6     integrate general  REF                               20796600       8.85%
 0     collocate general  REF                                 768000       0.33%
 0     integrate general  REF                                 384000       0.16%
 -------------------------------------------------------------------------------

 MEMORY| Estimated peak process memory [MiB]                                5598

 -------------------------------------------------------------------------------
 ----                             MULTIGRID INFO                            ----
 -------------------------------------------------------------------------------
 count for grid        1:       48940300          cutoff [a.u.]          250.00
 count for grid        2:       21683380          cutoff [a.u.]           83.33
 count for grid        3:       16263060          cutoff [a.u.]           27.78
 count for grid        4:        5910680          cutoff [a.u.]            9.26
 total gridlevel count  :       92797420

 -------------------------------------------------------------------------------
 -                                                                             -
 -                         MESSAGE PASSING PERFORMANCE                         -
 -                                                                             -
 -------------------------------------------------------------------------------

 ROUTINE             CALLS      AVE VOLUME [Bytes]
 MP_Group             5945
 MP_Bcast             8020                 717564.
 MP_Allreduce        12295                  17186.
 MP_Sync              9520
 MP_Alltoall          5015                  79231.
 MP_SendRecv        253242                  22720.
 MP_ISendRecv       253242                  22720.
 MP_Wait            269762
 MP_comm_split        3471
 MP_ISend           724098                 394857.
 MP_IRecv           753300                 404456.
 -------------------------------------------------------------------------------


 -------------------------------------------------------------------------------
 -                                                                             -
 -                           R E F E R E N C E S                               -
 -                                                                             -
 -------------------------------------------------------------------------------
 
 CP2K version 2023.1 (Development Version), the CP2K developers group (2023).
 CP2K is freely available from https://www.cp2k.org/ .

 Kuehne,Thomas D.; Iannuzzi,Marcella; Del Ben,Mauro;
 Rybkin,Vladimir V.; Seewald,Patrick; Stein,Frederick; Laino,Teodoro;
 Khaliullin,Rustam Z.; Schuett,Ole; Schiffmann,Florian; Golze,Dorothea;
 Wilhelm,Jan; Chulkov,Sergey; Bani-Hashemian,Mohammad Hossein;
 Weber,Valery; Borstnik,Urban; Taillefumier,Mathieu;
 Jakobovits,Alice Shoshana; Lazzaro,Alfio; Pabst,Hans; Mueller,Tiziano;
 Schade,Robert; Guidon,Manuel; Andermatt,Samuel; Holmberg,Nico;
 Schenter,Gregory K.; Hehn,Anna; Bussy,Augustin; Belleflamme,Fabian;
 Tabacchi,Gloria; Gloess,Andreas; Lass,Michael; Bethune,Iain;
 Mundy,Christopher J.; Plessl,Christian; Watkins,Matt;
 VandeVondele,Joost; Krack,Matthias; Hutter,Juerg. 
 The Journal of Chemical Physics, 152 (19), (2020). 
 CP2K: An electronic structure and molecular dynamics software package -
 Quickstep: Efficient and accurate electronic structure calculations.
 https://doi.org/10.1063/5.0007045

 Wilhelm, J; Golze, D; Talirz, L; Hutter, J; Pignedoli, CA. 
 JOURNAL OF PHYSICAL CHEMISTRY LETTERS, 9, 306-312 (2018). 
 Toward GW calculations on thousands of atoms.
 https://doi.org/10.1021/acs.jpclett.7b02740

 Wilhelm, J; Hutter, J. PHYSICAL REVIEW B, 95, 235123 (2017). 
 Periodic GW calculations in the Gaussian and plane-waves scheme.
 https://doi.org/10.1103/PhysRevB.95.235123

 Wilhelm, J; Del Ben, M; Hutter, J. 
 JOURNAL OF CHEMICAL THEORY AND COMPUTATION, 12, 3623-3635 (2016). 
 GW in the Gaussian and plane waves scheme with application to linear acenes.
 https://doi.org/10.1021/acs.jctc.6b00380

 Wilhelm, J; Seewald, P; Del Ben, M; Hutter, J. 
 JOURNAL OF CHEMICAL THEORY AND COMPUTATION, 12, 5851-5859 (2016). 
 Large-Scale Cubic-Scaling Random Phase Approximation Correlation.
 https://doi.org/10.1021/acs.jctc.6b00840

 Schuett, Ole; Messmer, Peter; Hutter, Juerg; VandeVondele, Joost. 
 Electronic Structure Calculations on Graphics Processing Units, John
 Wiley & Sons, Ltd, 173-190 (2016). 
 GPU-Accelerated Sparse Matrix-Matrix Multiplication for
 Linear Scaling Density Functional Theory.
 https://doi.org/10.1002/9781118670712.ch8

 Heinecke, A; Henry, G; Hutchinson, M; Pabst, H. 
 Proceedings of Intl. Supercomputing Conference, 981-991 (2016). 
 LIBXSMM: Accelerating Small Matrix Multiplications
 by Runtime Code Generation.
 https://doi.org/10.1109/SC.2016.83

 Del Ben, M; Schuett, O; Wentz, T; Messmer, P; Hutter, J;
 VandeVondele, J. 
 COMPUTER PHYSICS COMMUNICATIONS, 187, 120-129 (2015). 
 Enabling simulation at the fifth rung of DFT: Large scale RPA
 calculations with excellent time to solution.
 https://doi.org/10.1016/j.cpc.2014.10.021

 Borstnik, U; VandeVondele, J; Weber, V; Hutter, J. 
 PARALLEL COMPUTING, 40 (5-6), 47-58 (2014). 
 Sparse matrix multiplication: The distributed block-compressed sparse
 row library.
 https://doi.org/10.1016/j.parco.2014.03.012

 Hutter, J; Iannuzzi, M; Schiffmann, F; VandeVondele, J. 
 WIREs Comput Mol Sci., 4 (1), 15-25 (2014). 
 CP2K: atomistic simulations of condensed matter systems.
 https://doi.org/10.1002/wcms.1159

 Marek, A; Blum, V; Johanni, R; Havu, V; Lang, B; Auckenthaler, T;
 Heinecke, A; Bungartz, H; Lederer, H. 
 Journal of Physics: Condensed Matter, 26 (21), (2014). 
 The ELPA library: scalable parallel eigenvalue solutions for
 electronic structure
 theory and computational science.
 https://doi.org/10.1088/0953-8984/26/21/213201

 Del Ben, M; Hutter, J; VandeVondele, J. 
 JOURNAL OF CHEMICAL THEORY AND COMPUTATION, 9 (6), 2654-2671 (2013). 
 Electron Correlation in the Condensed Phase from a Resolution of
 Identity Approach Based on the Gaussian and Plane Waves Scheme.
 https://doi.org/10.1021/ct4002202

 Del Ben, M; Hutter, J; VandeVondele, J. 
 JOURNAL OF CHEMICAL THEORY AND COMPUTATION, 8 (11), 4177-4188 (2012). 
 Second-Order Moller-Plesset Perturbation Theory in the Condensed Phase:
 An Efficient and Massively Parallel Gaussian and Plane Waves Approach.
 https://doi.org/10.1021/ct300531w

 VandeVondele, J; Hutter, J. 
 JOURNAL OF CHEMICAL PHYSICS, 127 (11), 114105 (2007). 
 Gaussian basis sets for accurate calculations on molecular systems in
 gas and condensed phases.
 https://doi.org/10.1063/1.2770708

 Krack, M. 
 THEORETICAL CHEMISTRY ACCOUNTS, 114 (1-3), 145-152 (2005). 
 Pseudopotentials for H to Kr optimized for gradient-corrected
 exchange-correlation functionals.
 https://doi.org/10.1007/s00214-005-0655-y

 VandeVondele, J; Krack, M; Mohamed, F; Parrinello, M; Chassaing, T;
 Hutter, J. COMPUTER PHYSICS COMMUNICATIONS, 167 (2), 103-128 (2005). 
 QUICKSTEP: Fast and accurate density functional calculations using a
 mixed Gaussian and plane waves approach.
 https://doi.org/10.1016/j.cpc.2004.12.014

 Frigo, M; Johnson, SG. 
 PROCEEDINGS OF THE IEEE, 93 (2), 216-231 (2005). 
 The design and implementation of FFTW3.
 https://doi.org/10.1109/JPROC.2004.840301

 Hartwigsen, C; Goedecker, S; Hutter, J. 
 PHYSICAL REVIEW B, 58 (7), 3641-3662 (1998). 
 Relativistic separable dual-space Gaussian pseudopotentials from H to Rn.
 https://doi.org/10.1103/PhysRevB.58.3641

 Lippert, G; Hutter, J; Parrinello, M. 
 MOLECULAR PHYSICS, 92 (3), 477-487 (1997). 
 A hybrid Gaussian and plane wave density functional scheme.
 https://doi.org/10.1080/002689797170220

 Goedecker, S; Teter, M; Hutter, J. 
 PHYSICAL REVIEW B, 54 (3), 1703-1710 (1996). 
 Separable dual-space Gaussian pseudopotentials.
 https://doi.org/10.1103/PhysRevB.54.1703


 -------------------------------------------------------------------------------
 -                                                                             -
 -                                T I M I N G                                  -
 -                                                                             -
 -------------------------------------------------------------------------------
 SUBROUTINE                       CALLS  ASD         SELF TIME        TOTAL TIME
                                MAXIMUM       AVERAGE  MAXIMUM  AVERAGE  MAXIMUM
 CP2K                                 1  1.0     0.01     0.04 11507.11 11507.16
 qs_energies                          1  2.0     0.00     0.00 11506.54 11506.59
 mp2_main                             1  3.0     0.00     0.00 11357.80 11357.85
 mp2_gpw_main                         1  4.0     0.00     0.01 11356.07 11356.13
 rpa_ri_compute_en                    1  5.0     0.00     0.00 10839.14 10839.19
 rpa_num_int                          1  6.0     0.00     0.00 10487.11 10487.17
 dbt_total                         1907  9.8     0.01     0.03  7196.62  7196.66
 dbt_contract                       765 11.0     0.05     0.07  6562.94  6565.63
 dbt_tas_total                     1206 13.4    41.87    48.99  6441.76  6441.78
 dbt_tas_multiply                  1065 12.8     0.00     0.00  6437.40  6437.43
 compute_QP_energies                  1  7.0     0.00     0.00  5347.72  5347.74
 compute_self_energy_cubic_gw_k       1  8.0     0.21     0.23  5347.56  5347.60
 dbt_tas_dbm                       1065 14.8     0.00     0.01  4753.86  4753.94
 dbm_multiply                      1065 16.8  3754.26  4065.87  3754.26  4065.87
 compute_mat_P_omega                  1  7.0     0.00     0.00  2619.49  2619.52
 compute_mat_P_omega_contract        10  8.0     6.02     6.71  2606.34  2606.35
 contract_to_self_energy            198  9.0     0.00     0.01  2559.49  2560.04
 rpa_num_int_RPA_matrix_operati      10  7.0     0.00     0.00  2513.25  2513.29
 invert_eps_compute_W_and_Erpa_      10  8.0     0.00     0.00  2513.21  2513.24
 dbt_tas_mm_2                       289 15.0     0.00     0.00  2143.92  2143.93
 tensor_operation_3c_W               99  9.0     0.00     0.00  2048.93  2049.40
 cp_cfm_heevd                       441 10.2  1992.75  1994.45  1992.75  1994.45
 cp_cfm_power                       312  9.7     0.31     0.78  1926.13  1926.97
 compute_Q_kp_RPA                   260  9.0     0.18     0.78  1922.90  1923.50
 mp_sync                           9520 12.7  1238.90  1785.36  1238.90  1785.36
 parallel_gemm_cfm                 4194 10.2     0.01     0.01  1439.57  1443.62
 parallel_gemm_cfm_cosma           4194 11.2  1439.56  1443.61  1439.56  1443.61
 dbt_tas_mm_3N                      198 16.5     0.00     0.00  1131.29  1288.72
 compute_mat_P_omega_calc_P_t        90  9.0     0.00     0.00  1032.46  1032.46
 mp_waitall_2                      5475 16.7   898.25  1031.55   898.25  1031.55
 compute_mat_P_omega_calc_M_occ      90  9.0     6.03     6.72   793.25   793.26
 trafo_to_mo_and_kpoints             21  9.0     0.32     0.59   693.96   693.97
 dbt_tas_communicate_buffer        1955 17.3     0.31     0.46   616.03   632.82
 dbm_redistribute                  2394 15.8   578.03   609.30   578.03   609.30
 mp_isend_dv                     523571 16.4   149.25   597.84   149.25   597.84
 dbt_copy                           949 10.8     0.05     0.07   523.60   585.61
 dbt_reshape                        929 11.8    68.21    76.48   519.03   581.02
 dbt_tas_replicate                  928 15.0    19.43    50.70   563.01   576.10
 dbt_tas_replicate_communicate_     717 16.3     0.06     0.10   531.61   546.14
 mp2_ri_gpw_compute_in                1  5.0     0.00     0.00   516.91   516.91
 dbt_tas_mm_3T                      396 16.5     0.00     0.00   478.10   515.98
 dbt_communicate_buffer             929 12.8     0.22     0.25   432.38   488.66
 dbt_tas_mm_1N                      182 15.0     0.00     0.00   339.08   482.55
 compute_Wc_real_space_tau_GW       260  9.0     0.00     0.00   475.42   475.92
 get_2c_integrals                     1  6.0     0.00     0.00   462.57   462.58
 compute_mat_P_omega_calc_M_vir      90  9.0     0.00     0.00   462.41   462.42
 convert_to_new_pgrid              3195 14.8    35.12    56.31   424.06   438.24
 inversion_of_M_and_mult_with_c       1  7.0     0.00     0.00   362.73   362.74
 get_bandstruc_and_k_dependent_       1  6.0     0.00     0.00   352.00   352.01
 create_kp_and_calc_kp_orbitals       3  7.0     0.00     0.01   352.00   352.01
 cp_cfm_geeig                       129  8.0     0.00     0.00   324.56   324.93
 compute_Wc_real_space_tau_GW_3     260 10.0     0.00     0.00   308.55   311.09
 compute_Wc_real_space_tau_GW_2     260 10.0     0.02     0.03   158.63   159.99
 mp_alltoall_d11v                 46677 12.8   133.31   156.76   133.31   156.76
 cp_cfm_cholesky_invert             260 11.0   155.68   156.41   155.68   156.41
 scf_env_do_scf                       1  3.0     0.00     0.00   146.34   146.69
 scf_env_do_scf_inner_loop           65  4.0     0.00     0.00   146.34   146.69
 real_space_to_kpoint_transform      37  9.8     2.87     3.09   141.93   141.96
 dbcsr_new_transposed              7514 10.8     0.37     0.39   138.45   138.97
 dbcsr_redistribute                7448 11.9     1.34     1.62   138.00   138.57
 mp_sum_l                          6797 13.9    88.33   119.29    88.33   119.29
 -------------------------------------------------------------------------------

 The number of warnings for this run is : 3
 
 -------------------------------------------------------------------------------
  **** **** ******  **  PROGRAM ENDED AT                 2023-05-28 07:26:31.264
 ***** ** ***  *** **   PROGRAM RAN ON                                  n2cn0301
 **    ****   ******    PROGRAM RAN BY                                  eprop2d1
 ***** **    ** ** **   PROGRAM PROCESS ID                               4000385
  **** **  *******  **  PROGRAM STOPPED IN /scratch/hpc-prf-eprop2d/eprop2d1_Jan
                                           /02_MoS2_MoSe2_WS2_WSe2/1_MoS2/10x10_
                                           PBE/01_reg_RI_1e-2_TZV2P_gap_standard
                                           _RI/1_10_minimax
