 DBCSR| CPU Multiplication driver                                           BLAS (U)
 DBCSR| Multrec recursion limit                                              512 (U)
 DBCSR| Multiplication stack size                                           1000 (D)
 DBCSR| Maximum elements for images                                    UNLIMITED (U)
 DBCSR| Multiplicative factor virtual images                                   1 (U)
 DBCSR| Use multiplication densification                                       T (D)
 DBCSR| Multiplication size stacks                                             3 (U)
 DBCSR| Use memory pool for CPU allocation                                     F (U)
 DBCSR| Number of 3D layers                                               SINGLE (U)
 DBCSR| Use MPI memory allocation                                              F (U)
 DBCSR| Use RMA algorithm                                                      F (U)
 DBCSR| Use Communication thread                                               T (U)
 DBCSR| Communication thread load                                             83 (D)
 DBCSR| MPI: My process id                                                     0
 DBCSR| MPI: Number of processes                                             816
 DBCSR| OMP: Current number of threads                                         2
 DBCSR| OMP: Max number of threads                                             2
 DBCSR| Split modifier for TAS multiplication algorithm                  1.0E+00 (U)


  **** **** ******  **  PROGRAM STARTED AT               2023-03-11 15:05:35.246
 ***** ** ***  *** **   PROGRAM STARTED ON                          f01r01c03s01
 **    ****   ******    PROGRAM STARTED BY                               di76zil
 ***** **    ** ** **   PROGRAM PROCESS ID                                637597
  **** **  *******  **  PROGRAM STARTED IN /hppfs/work/pn72pa/di76zil/11_2D_peri
                                           odic_materials/02_MoS2/14x14_supercel
                                           l/3_TZVP_MOLOPT/07_LDA_reg_1e-2

 CP2K| version string:                 CP2K version 2023.1 (Development Version)
 CP2K| source code revision number:                                  git:383ec4c
 CP2K| cp2kflags: omp libint fftw3 parallel scalapack mkl                       
 CP2K| is freely available from                            https://www.cp2k.org/
 CP2K| Program compiled at                       Wed 01 Feb 2023 09:43:43 PM CET
 CP2K| Program compiled on                                               login01
 CP2K| Program compiled for                       supermuc_jw_intel19_2022_04_11
 CP2K| Data directory path    /hppfs/work/pn72pa/di76zil/23_compilation/54_print
 CP2K| Input file name                                               GW_MoS2.inp
 
 GLOBAL| Force Environment number                                              1
 GLOBAL| Basis set file name                                        BASIS_MOLOPT
 GLOBAL| Potential file name                                      GTH_POTENTIALS
 GLOBAL| MM Potential file name                                     MM_POTENTIAL
 GLOBAL| Coordinate file name                                      __STD_INPUT__
 GLOBAL| Method name                                                        CP2K
 GLOBAL| Project name                                                       MoS2
 GLOBAL| Run type                                                         ENERGY
 GLOBAL| FFT library                                                       FFTW3
 GLOBAL| Diagonalization library                                       ScaLAPACK
 GLOBAL| DGEMM library                                                      BLAS
 GLOBAL| Orthonormality check for eigenvectors                          DISABLED
 GLOBAL| Matrix multiplication library                                 ScaLAPACK
 GLOBAL| All-to-all communication in single precision                          F
 GLOBAL| FFTs using library dependent lengths                                  F
 GLOBAL| Grid backend                                                       AUTO
 GLOBAL| Global print level                                               MEDIUM
 GLOBAL| MPI I/O enabled                                                       T
 GLOBAL| Total number of message passing processes                           816
 GLOBAL| Number of threads for this process                                    2
 GLOBAL| This output is from process                                           0
 GLOBAL| Stack size for threads created by OpenMP (OMP_STACKSIZE)          2000m
 GLOBAL| CPU model name             Intel(R) Xeon(R) Platinum 8174 CPU @ 3.10GHz

 MEMORY| system memory details [Kb]
 MEMORY|                        rank 0           min           max       average
 MEMORY| MemTotal            792068884     792068880     792068964     792068914
 MEMORY| MemFree             777445124     776589128     777603452     776919431
 MEMORY| Buffers                     0             0             0             0
 MEMORY| Cached                2644980       2644976       2747368       2711968
 MEMORY| Slab                   876604        837420       1050488        981990
 MEMORY| SReclaimable           168496        150116        232316        202746
 MEMORY| MemLikelyFree       780258600     779541568     780400296     779834146


 *** Fundamental physical constants (SI units) ***

 *** Literature: B. J. Mohr and B. N. Taylor,
 ***             CODATA recommended values of the fundamental physical
 ***             constants: 2006, Web Version 5.1
 ***             http://physics.nist.gov/constants

 Speed of light in vacuum [m/s]                             2.99792458000000E+08
 Magnetic constant or permeability of vacuum [N/A**2]       1.25663706143592E-06
 Electric constant or permittivity of vacuum [F/m]          8.85418781762039E-12
 Planck constant (h) [J*s]                                  6.62606896000000E-34
 Planck constant (h-bar) [J*s]                              1.05457162825177E-34
 Elementary charge [C]                                      1.60217648700000E-19
 Electron mass [kg]                                         9.10938215000000E-31
 Electron g factor [ ]                                     -2.00231930436220E+00
 Proton mass [kg]                                           1.67262163700000E-27
 Fine-structure constant                                    7.29735253760000E-03
 Rydberg constant [1/m]                                     1.09737315685270E+07
 Avogadro constant [1/mol]                                  6.02214179000000E+23
 Boltzmann constant [J/K]                                   1.38065040000000E-23
 Atomic mass unit [kg]                                      1.66053878200000E-27
 Bohr radius [m]                                            5.29177208590000E-11

 *** Conversion factors ***

 [u] -> [a.u.]                                              1.82288848426455E+03
 [Angstrom] -> [Bohr] = [a.u.]                              1.88972613288564E+00
 [a.u.] = [Bohr] -> [Angstrom]                              5.29177208590000E-01
 [a.u.] -> [s]                                              2.41888432650478E-17
 [a.u.] -> [fs]                                             2.41888432650478E-02
 [a.u.] -> [J]                                              4.35974393937059E-18
 [a.u.] -> [N]                                              8.23872205491840E-08
 [a.u.] -> [K]                                              3.15774647902944E+05
 [a.u.] -> [kJ/mol]                                         2.62549961709828E+03
 [a.u.] -> [kcal/mol]                                       6.27509468713739E+02
 [a.u.] -> [Pa]                                             2.94210107994716E+13
 [a.u.] -> [bar]                                            2.94210107994716E+08
 [a.u.] -> [atm]                                            2.90362800883016E+08
 [a.u.] -> [eV]                                             2.72113838565563E+01
 [a.u.] -> [Hz]                                             6.57968392072181E+15
 [a.u.] -> [1/cm] (wave numbers)                            2.19474631370540E+05
 [a.u./Bohr**2] -> [1/cm]                                   5.14048714338585E+03
 

 CELL_TOP| Volume [angstrom^3]:                                     25263.822983
 CELL_TOP| Vector a [angstrom    44.100     0.000     0.000   |a| =    44.100000
 CELL_TOP| Vector b [angstrom   -22.050    38.192     0.000   |b| =    44.100000
 CELL_TOP| Vector c [angstrom     0.000     0.000    15.000   |c| =    15.000000
 CELL_TOP| Angle (b,c), alpha [degree]:                                90.000000
 CELL_TOP| Angle (a,c), beta  [degree]:                                90.000000
 CELL_TOP| Angle (a,b), gamma [degree]:                               120.000000
 CELL_TOP| Numerically orthorhombic:                                          NO
 CELL_TOP| Periodicity                                                        XY

 CELL_UC| Volume [angstrom^3]:                                        128.897056
 CELL_UC| Vector a [angstrom]     3.150     0.000     0.000   |a| =     3.150000
 CELL_UC| Vector b [angstrom]    -1.575     2.728     0.000   |b| =     3.150000
 CELL_UC| Vector c [angstrom]     0.000     0.000    15.000   |c| =    15.000000
 CELL_UC| Angle (b,c), alpha [degree]:                                 90.000000
 CELL_UC| Angle (a,c), beta  [degree]:                                 90.000000
 CELL_UC| Angle (a,b), gamma [degree]:                                120.000000
 CELL_UC| Numerically orthorhombic:                                           NO
 CELL_UC| Periodicity                                                         XY
 
 GENERATE|  Preliminary Number of Bonds generated:                             0
 GENERATE|  Achieved consistency in connectivity generation.

 CELL| Volume [angstrom^3]:                                         25263.822983
 CELL| Vector a [angstrom]:      44.100     0.000     0.000   |a| =    44.100000
 CELL| Vector b [angstrom]:     -22.050    38.192     0.000   |b| =    44.100000
 CELL| Vector c [angstrom]:       0.000     0.000    15.000   |c| =    15.000000
 CELL| Angle (b,c), alpha [degree]:                                    90.000000
 CELL| Angle (a,c), beta  [degree]:                                    90.000000
 CELL| Angle (a,b), gamma [degree]:                                   120.000000
 CELL| Numerically orthorhombic:                                              NO
 CELL| Periodicity                                                            XY

 CELL_REF| Volume [angstrom^3]:                                     25263.822983
 CELL_REF| Vector a [angstrom    44.100     0.000     0.000   |a| =    44.100000
 CELL_REF| Vector b [angstrom   -22.050    38.192     0.000   |b| =    44.100000
 CELL_REF| Vector c [angstrom     0.000     0.000    15.000   |c| =    15.000000
 CELL_REF| Angle (b,c), alpha [degree]:                                90.000000
 CELL_REF| Angle (a,c), beta  [degree]:                                90.000000
 CELL_REF| Angle (a,b), gamma [degree]:                               120.000000
 CELL_REF| Numerically orthorhombic:                                          NO
 CELL_REF| Periodicity                                                        XY

 *******************************************************************************
 *******************************************************************************
 **                                                                           **
 **     #####                         ##              ##                      **
 **    ##   ##            ##          ##              ##                      **
 **   ##     ##                       ##            ######                    **
 **   ##     ##  ##   ##  ##   #####  ##  ##   ####   ##    #####    #####    **
 **   ##     ##  ##   ##  ##  ##      ## ##   ##      ##   ##   ##  ##   ##   **
 **   ##  ## ##  ##   ##  ##  ##      ####     ###    ##   ######   ######    **
 **    ##  ###   ##   ##  ##  ##      ## ##      ##   ##   ##       ##        **
 **     #######   #####   ##   #####  ##  ##  ####    ##    #####   ##        **
 **           ##                                                    ##        **
 **                                                                           **
 **                                                ... make the atoms dance   **
 **                                                                           **
 **            Copyright (C) by CP2K developers group (2000-2023)             **
 **                      J. Chem. Phys. 152, 194103 (2020)                    **
 **                                                                           **
 *******************************************************************************

 DFT| Spin restricted Kohn-Sham (RKS) calculation                            RKS
 DFT| Multiplicity                                                             1
 DFT| Number of spin states                                                    1
 DFT| Charge                                                                   0
 DFT| Self-interaction correction (SIC)                                       NO
 DFT| Cutoffs: density                                              1.000000E-10
 DFT|          gradient                                             1.000000E-10
 DFT|          tau                                                  1.000000E-10
 DFT|          cutoff_smoothing_range                               0.000000E+00
 DFT| XC density smoothing                                                  NONE
 DFT| XC derivatives                                                          PW

 FUNCTIONAL| PADE:
 FUNCTIONAL| S. Goedecker, M. Teter and J. Hutter, Phys. Rev. B 54, 1703 (1996) 


 QS| Method:                                                                 GPW
 QS| Density plane wave grid type                        NON-SPHERICAL FULLSPACE
 QS| Number of grid levels:                                                    4
 QS| Density cutoff [a.u.]:                                                250.0
 QS| Multi grid cutoff [a.u.]: 1) grid level                               250.0
 QS|                           2) grid level                                83.3
 QS|                           3) grid level                                27.8
 QS|                           4) grid level                                 9.3
 QS| Grid level progression factor:                                          3.0
 QS| Relative density cutoff [a.u.]:                                        50.0
 QS| Interaction thresholds: eps_pgf_orb:                                1.0E-40
 QS|                         eps_filter_matrix:                          0.0E+00
 QS|                         eps_core_charge:                            1.0E-42
 QS|                         eps_rho_gspace:                             1.0E-40
 QS|                         eps_rho_rspace:                             1.0E-40
 QS|                         eps_gvg_rspace:                             1.0E-20
 QS|                         eps_ppl:                                    1.0E-02
 QS|                         eps_ppnl:                                   1.0E-22


 ATOMIC KIND INFORMATION

  1. Atomic kind: Mo                                    Number of atoms:     196

     Orbital Basis Set                              TZVP-MOLOPT-SR-GTH_robust_12

       Number of orbital shell sets:                                           1
       Number of orbital shells:                                              11
       Number of primitive Cartesian functions:                                7
       Number of Cartesian basis functions:                                   41
       Number of spherical basis functions:                                   35
       Norm type:                                                              2

       Normalised Cartesian orbitals:

                        Set   Shell   Orbital            Exponent    Coefficient

                          1       1    2s                2.540273      -1.345673
                                                         1.999996       0.727257
                                                         0.894040       0.537681
                                                         0.439257       0.138693
                                                         0.189498       0.017367
                                                         0.100000      -0.044162
                                                         0.110000       0.032945

                          1       2    3s                2.540273       0.114163
                                                         1.999996      -0.250260
                                                         0.894040       0.156531
                                                         0.439257       0.021259
                                                         0.189498      -0.094450
                                                         0.100000      -0.574755
                                                         0.110000       0.527481

                          1       3    4s                2.540273       0.776470
                                                         1.999996      -2.724036
                                                         0.894040       1.964078
                                                         0.439257      -0.908890
                                                         0.189498       0.239910
                                                         0.100000       1.543363
                                                         0.110000      -1.638373

                          1       4    5s                2.540273       0.193805
                                                         1.999996       0.674775
                                                         0.894040      -0.282582
                                                         0.439257       0.089402
                                                         0.189498      -0.137139
                                                         0.100000       0.405410
                                                         0.110000      -0.488537

                          1       5    3px               2.540273       3.691791
                                                         1.999996      -3.563133
                                                         0.894040      -0.805476
                                                         0.439257      -0.103576
                                                         0.189498       0.030607
                                                         0.100000      -0.059871
                                                         0.110000       0.070996
                          1       5    3py               2.540273       3.691791
                                                         1.999996      -3.563133
                                                         0.894040      -0.805476
                                                         0.439257      -0.103576
                                                         0.189498       0.030607
                                                         0.100000      -0.059871
                                                         0.110000       0.070996
                          1       5    3pz               2.540273       3.691791
                                                         1.999996      -3.563133
                                                         0.894040      -0.805476
                                                         0.439257      -0.103576
                                                         0.189498       0.030607
                                                         0.100000      -0.059871
                                                         0.110000       0.070996

                          1       6    4px               2.540273       0.129010
                                                         1.999996       0.099026
                                                         0.894040      -0.136173
                                                         0.439257      -0.038137
                                                         0.189498      -0.099149
                                                         0.100000      -0.222919
                                                         0.110000       0.214113
                          1       6    4py               2.540273       0.129010
                                                         1.999996       0.099026
                                                         0.894040      -0.136173
                                                         0.439257      -0.038137
                                                         0.189498      -0.099149
                                                         0.100000      -0.222919
                                                         0.110000       0.214113
                          1       6    4pz               2.540273       0.129010
                                                         1.999996       0.099026
                                                         0.894040      -0.136173
                                                         0.439257      -0.038137
                                                         0.189498      -0.099149
                                                         0.100000      -0.222919
                                                         0.110000       0.214113

                          1       7    5px               2.540273       0.471976
                                                         1.999996       0.044875
                                                         0.894040      -0.003198
                                                         0.439257      -0.397109
                                                         0.189498      -0.027230
                                                         0.100000       0.400879
                                                         0.110000      -0.427107
                          1       7    5py               2.540273       0.471976
                                                         1.999996       0.044875
                                                         0.894040      -0.003198
                                                         0.439257      -0.397109
                                                         0.189498      -0.027230
                                                         0.100000       0.400879
                                                         0.110000      -0.427107
                          1       7    5pz               2.540273       0.471976
                                                         1.999996       0.044875
                                                         0.894040      -0.003198
                                                         0.439257      -0.397109
                                                         0.189498      -0.027230
                                                         0.100000       0.400879
                                                         0.110000      -0.427107

                          1       8    4dx2              2.540273      -1.452114
                                                         1.999996       1.851969
                                                         0.894040       0.336748
                                                         0.439257       0.134418
                                                         0.189498       0.030638
                                                         0.100000       0.029183
                                                         0.110000      -0.028347
                          1       8    4dxy              2.540273      -2.515135
                                                         1.999996       3.207704
                                                         0.894040       0.583264
                                                         0.439257       0.232819
                                                         0.189498       0.053066
                                                         0.100000       0.050546
                                                         0.110000      -0.049099
                          1       8    4dxz              2.540273      -2.515135
                                                         1.999996       3.207704
                                                         0.894040       0.583264
                                                         0.439257       0.232819
                                                         0.189498       0.053066
                                                         0.100000       0.050546
                                                         0.110000      -0.049099
                          1       8    4dy2              2.540273      -1.452114
                                                         1.999996       1.851969
                                                         0.894040       0.336748
                                                         0.439257       0.134418
                                                         0.189498       0.030638
                                                         0.100000       0.029183
                                                         0.110000      -0.028347
                          1       8    4dyz              2.540273      -2.515135
                                                         1.999996       3.207704
                                                         0.894040       0.583264
                                                         0.439257       0.232819
                                                         0.189498       0.053066
                                                         0.100000       0.050546
                                                         0.110000      -0.049099
                          1       8    4dz2              2.540273      -1.452114
                                                         1.999996       1.851969
                                                         0.894040       0.336748
                                                         0.439257       0.134418
                                                         0.189498       0.030638
                                                         0.100000       0.029183
                                                         0.110000      -0.028347

                          1       9    5dx2              2.540273       1.091564
                                                         1.999996      -1.380594
                                                         0.894040      -0.266409
                                                         0.439257      -0.106871
                                                         0.189498       0.052951
                                                         0.100000       0.120262
                                                         0.110000      -0.123814
                          1       9    5dxy              2.540273       1.890645
                                                         1.999996      -2.391258
                                                         0.894040      -0.461434
                                                         0.439257      -0.185105
                                                         0.189498       0.091714
                                                         0.100000       0.208300
                                                         0.110000      -0.214453
                          1       9    5dxz              2.540273       1.890645
                                                         1.999996      -2.391258
                                                         0.894040      -0.461434
                                                         0.439257      -0.185105
                                                         0.189498       0.091714
                                                         0.100000       0.208300
                                                         0.110000      -0.214453
                          1       9    5dy2              2.540273       1.091564
                                                         1.999996      -1.380594
                                                         0.894040      -0.266409
                                                         0.439257      -0.106871
                                                         0.189498       0.052951
                                                         0.100000       0.120262
                                                         0.110000      -0.123814
                          1       9    5dyz              2.540273       1.890645
                                                         1.999996      -2.391258
                                                         0.894040      -0.461434
                                                         0.439257      -0.185105
                                                         0.189498       0.091714
                                                         0.100000       0.208300
                                                         0.110000      -0.214453
                          1       9    5dz2              2.540273       1.091564
                                                         1.999996      -1.380594
                                                         0.894040      -0.266409
                                                         0.439257      -0.106871
                                                         0.189498       0.052951
                                                         0.100000       0.120262
                                                         0.110000      -0.123814

                          1      10    6dx2              2.540273       0.186639
                                                         1.999996       0.227829
                                                         0.894040       1.446911
                                                         0.439257      -0.212124
                                                         0.189498      -0.009110
                                                         0.100000       0.033278
                                                         0.110000      -0.056981
                          1      10    6dxy              2.540273       0.323269
                                                         1.999996       0.394612
                                                         0.894040       2.506124
                                                         0.439257      -0.367409
                                                         0.189498      -0.015779
                                                         0.100000       0.057640
                                                         0.110000      -0.098694
                          1      10    6dxz              2.540273       0.323269
                                                         1.999996       0.394612
                                                         0.894040       2.506124
                                                         0.439257      -0.367409
                                                         0.189498      -0.015779
                                                         0.100000       0.057640
                                                         0.110000      -0.098694
                          1      10    6dy2              2.540273       0.186639
                                                         1.999996       0.227829
                                                         0.894040       1.446911
                                                         0.439257      -0.212124
                                                         0.189498      -0.009110
                                                         0.100000       0.033278
                                                         0.110000      -0.056981
                          1      10    6dyz              2.540273       0.323269
                                                         1.999996       0.394612
                                                         0.894040       2.506124
                                                         0.439257      -0.367409
                                                         0.189498      -0.015779
                                                         0.100000       0.057640
                                                         0.110000      -0.098694
                          1      10    6dz2              2.540273       0.186639
                                                         1.999996       0.227829
                                                         0.894040       1.446911
                                                         0.439257      -0.212124
                                                         0.189498      -0.009110
                                                         0.100000       0.033278
                                                         0.110000      -0.056981

                          1      11    5fx3              2.540273       0.802599
                                                         1.999996      -0.728191
                                                         0.894040      -0.320471
                                                         0.439257      -0.113251
                                                         0.189498      -0.010396
                                                         0.100000      -0.004689
                                                         0.110000       0.004443
                          1      11    5fx2y             2.540273       1.794666
                                                         1.999996      -1.628284
                                                         0.894040      -0.716595
                                                         0.439257      -0.253237
                                                         0.189498      -0.023245
                                                         0.100000      -0.010486
                                                         0.110000       0.009935
                          1      11    5fx2z             2.540273       1.794666
                                                         1.999996      -1.628284
                                                         0.894040      -0.716595
                                                         0.439257      -0.253237
                                                         0.189498      -0.023245
                                                         0.100000      -0.010486
                                                         0.110000       0.009935
                          1      11    5fxy2             2.540273       1.794666
                                                         1.999996      -1.628284
                                                         0.894040      -0.716595
                                                         0.439257      -0.253237
                                                         0.189498      -0.023245
                                                         0.100000      -0.010486
                                                         0.110000       0.009935
                          1      11    5fxyz             2.540273       3.108453
                                                         1.999996      -2.820270
                                                         0.894040      -1.241179
                                                         0.439257      -0.438619
                                                         0.189498      -0.040262
                                                         0.100000      -0.018162
                                                         0.110000       0.017207
                          1      11    5fxz2             2.540273       1.794666
                                                         1.999996      -1.628284
                                                         0.894040      -0.716595
                                                         0.439257      -0.253237
                                                         0.189498      -0.023245
                                                         0.100000      -0.010486
                                                         0.110000       0.009935
                          1      11    5fy3              2.540273       0.802599
                                                         1.999996      -0.728191
                                                         0.894040      -0.320471
                                                         0.439257      -0.113251
                                                         0.189498      -0.010396
                                                         0.100000      -0.004689
                                                         0.110000       0.004443
                          1      11    5fy2z             2.540273       1.794666
                                                         1.999996      -1.628284
                                                         0.894040      -0.716595
                                                         0.439257      -0.253237
                                                         0.189498      -0.023245
                                                         0.100000      -0.010486
                                                         0.110000       0.009935
                          1      11    5fyz2             2.540273       1.794666
                                                         1.999996      -1.628284
                                                         0.894040      -0.716595
                                                         0.439257      -0.253237
                                                         0.189498      -0.023245
                                                         0.100000      -0.010486
                                                         0.110000       0.009935
                          1      11    5fz3              2.540273       0.802599
                                                         1.999996      -0.728191
                                                         0.894040      -0.320471
                                                         0.439257      -0.113251
                                                         0.189498      -0.010396
                                                         0.100000      -0.004689
                                                         0.110000       0.004443

     RI Auxiliary Basis Set                                 def2-SVP-RIFIT-mod-2

       Number of orbital shell sets:                                          17
       Number of orbital shells:                                              17
       Number of primitive Cartesian functions:                               17
       Number of Cartesian basis functions:                                   91
       Number of spherical basis functions:                                   69
       Norm type:                                                              2

       Normalised Cartesian orbitals:

                        Set   Shell   Orbital            Exponent    Coefficient

                          1       1    1s                0.185545       0.201487

                          2       1    1px               0.223731       0.219330
                          2       1    1py               0.223731       0.219330
                          2       1    1pz               0.223731       0.219330

                          3       1    1dx2              0.346956       0.258160
                          3       1    1dxy              0.346956       0.447147
                          3       1    1dxz              0.346956       0.447147
                          3       1    1dy2              0.346956       0.258160
                          3       1    1dyz              0.346956       0.447147
                          3       1    1dz2              0.346956       0.258160

                          4       1    1s                0.360392       0.331506

                          5       1    1fx3              0.410523       0.198593
                          5       1    1fx2y             0.410523       0.444066
                          5       1    1fx2z             0.410523       0.444066
                          5       1    1fxy2             0.410523       0.444066
                          5       1    1fxyz             0.410523       0.769146
                          5       1    1fxz2             0.410523       0.444066
                          5       1    1fy3              0.410523       0.198593
                          5       1    1fy2z             0.410523       0.444066
                          5       1    1fyz2             0.410523       0.444066
                          5       1    1fz3              0.410523       0.198593

                          6       1    1px               0.498778       0.597481
                          6       1    1py               0.498778       0.597481
                          6       1    1pz               0.498778       0.597481

                          7       1    1gx4              0.570000       0.237187
                          7       1    1gx3y             0.570000       0.627538
                          7       1    1gx3z             0.570000       0.627538
                          7       1    1gx2y2            0.570000       0.810149
                          7       1    1gx2yz            0.570000       1.403218
                          7       1    1gx2z2            0.570000       0.810149
                          7       1    1gxy3             0.570000       0.627538
                          7       1    1gxy2z            0.570000       1.403218
                          7       1    1gxyz2            0.570000       1.403218
                          7       1    1gxz3             0.570000       0.627538
                          7       1    1gy4              0.570000       0.237187
                          7       1    1gy3z             0.570000       0.627538
                          7       1    1gy2z2            0.570000       0.810149
                          7       1    1gyz3             0.570000       0.627538
                          7       1    1gz4              0.570000       0.237187

                          8       1    1dx2              0.576698       0.628158
                          8       1    1dxy              0.576698       1.088002
                          8       1    1dxz              0.576698       1.088002
                          8       1    1dy2              0.576698       0.628158
                          8       1    1dyz              0.576698       1.088002
                          8       1    1dz2              0.576698       0.628158

                          9       1    1s                0.619083       0.497418

                         10       1    1s                1.092167       0.761424

                         11       1    1fx3              1.103628       1.837832
                         11       1    1fx2y             1.103628       4.109516
                         11       1    1fx2z             1.103628       4.109516
                         11       1    1fxy2             1.103628       4.109516
                         11       1    1fxyz             1.103628       7.117891
                         11       1    1fxz2             1.103628       4.109516
                         11       1    1fy3              1.103628       1.837832
                         11       1    1fy2z             1.103628       4.109516
                         11       1    1fyz2             1.103628       4.109516
                         11       1    1fz3              1.103628       1.837832

                         12       1    1px               1.390701       2.152694
                         12       1    1py               1.390701       2.152694
                         12       1    1pz               1.390701       2.152694

                         13       1    1dx2              1.439171       3.112475
                         13       1    1dxy              1.439171       5.390965
                         13       1    1dxz              1.439171       5.390965
                         13       1    1dy2              1.439171       3.112475
                         13       1    1dyz              1.439171       5.390965
                         13       1    1dz2              1.439171       3.112475

                         14       1    1gx4              1.615953       4.164995
                         14       1    1gx3y             1.615953      11.019542
                         14       1    1gx3z             1.615953      11.019542
                         14       1    1gx2y2            1.615953      14.226167
                         14       1    1gx2yz            1.615953      24.640444
                         14       1    1gx2z2            1.615953      14.226167
                         14       1    1gxy3             1.615953      11.019542
                         14       1    1gxy2z            1.615953      24.640444
                         14       1    1gxyz2            1.615953      24.640444
                         14       1    1gxz3             1.615953      11.019542
                         14       1    1gy4              1.615953       4.164995
                         14       1    1gy3z             1.615953      11.019542
                         14       1    1gy2z2            1.615953      14.226167
                         14       1    1gyz3             1.615953      11.019542
                         14       1    1gz4              1.615953       4.164995

                         15       1    1px               2.100661       3.604831
                         15       1    1py               2.100661       3.604831
                         15       1    1pz               2.100661       3.604831

                         16       1    1s                2.197983       1.286555

                         17       1    1dx2              2.302596       7.084198
                         17       1    1dxy              2.302596      12.270190
                         17       1    1dxz              2.302596      12.270190
                         17       1    1dy2              2.302596       7.084198
                         17       1    1dyz              2.302596      12.270190
                         17       1    1dz2              2.302596       7.084198

       Atomic covalent radius [Angstrom]:                                  1.300

       Atomic van der Waals radius [Angstrom]:                             1.670

     GTH Potential information for                                  GTH-PADE-q14

       Description:                       Goedecker-Teter-Hutter pseudopotential
                                           Goedecker et al., PRB 54, 1703 (1996)
                                          Hartwigsen et al., PRB 58, 3641 (1998)
                                                      Krack, TCA 114, 145 (2005)

       Gaussian exponent of the core charge distribution:               2.704164
       Electronic configuration (s p d ...):                           3   6   5

       Parameters of the local part of the GTH pseudopotential:

                          rloc        C1          C2          C3          C4
                        0.430000   16.237452    1.496536

       Parameters of the non-local part of the GTH pseudopotential:

                   l      r(l)      h(i,j,l)

                   0    0.376255    3.362426    2.048528
                                    2.048528   -5.289276
                   1    0.361734   -0.379571    1.718923
                                    1.718923   -4.067713
                   2    0.525828   -1.543211   -0.473760
                                   -0.473760    1.074388

  2. Atomic kind: S                                     Number of atoms:     392

     Orbital Basis Set                                  TZVP-MOLOPT-GTH_robust_9

       Number of orbital shell sets:                                           1
       Number of orbital shells:                                               7
       Number of primitive Cartesian functions:                                7
       Number of Cartesian basis functions:                                   18
       Number of spherical basis functions:                                   17
       Norm type:                                                              2

       Normalised Cartesian orbitals:

                        Set   Shell   Orbital            Exponent    Coefficient

                          1       1    2s                3.817591       0.157267
                                                         2.362752      -0.510091
                                                         0.861004      -0.067546
                                                         0.417525       0.341513
                                                         0.181514       0.065074
                                                         0.120000       0.001196
                                                         0.140000      -0.001073

                          1       2    3s                3.817591      -0.191568
                                                         2.362752       0.523701
                                                         0.861004       0.282710
                                                         0.417525      -0.587888
                                                         0.181514       0.178884
                                                         0.120000       0.543819
                                                         0.140000      -0.487887

                          1       3    4s                3.817591      -0.991151
                                                         2.362752       1.865280
                                                         0.861004       0.135387
                                                         0.417525      -0.133451
                                                         0.181514       0.078400
                                                         0.120000      -0.405526
                                                         0.140000       0.363817

                          1       4    3px               3.817591      -0.172566
                                                         2.362752      -0.175790
                                                         0.861004       0.224449
                                                         0.417525       0.286658
                                                         0.181514       0.049751
                                                         0.120000       0.014921
                                                         0.140000      -0.014459
                          1       4    3py               3.817591      -0.172566
                                                         2.362752      -0.175790
                                                         0.861004       0.224449
                                                         0.417525       0.286658
                                                         0.181514       0.049751
                                                         0.120000       0.014921
                                                         0.140000      -0.014459
                          1       4    3pz               3.817591      -0.172566
                                                         2.362752      -0.175790
                                                         0.861004       0.224449
                                                         0.417525       0.286658
                                                         0.181514       0.049751
                                                         0.120000       0.014921
                                                         0.140000      -0.014459

                          1       5    4px               3.817591       0.010507
                                                         2.362752       0.217406
                                                         0.861004      -0.162395
                                                         0.417525      -0.206857
                                                         0.181514       0.107046
                                                         0.120000       0.290385
                                                         0.140000      -0.281393
                          1       5    4py               3.817591       0.010507
                                                         2.362752       0.217406
                                                         0.861004      -0.162395
                                                         0.417525      -0.206857
                                                         0.181514       0.107046
                                                         0.120000       0.290385
                                                         0.140000      -0.281393
                          1       5    4pz               3.817591       0.010507
                                                         2.362752       0.217406
                                                         0.861004      -0.162395
                                                         0.417525      -0.206857
                                                         0.181514       0.107046
                                                         0.120000       0.290385
                                                         0.140000      -0.281393

                          1       6    5px               3.817591      -0.947232
                                                         2.362752       1.731661
                                                         0.861004      -1.484366
                                                         0.417525       0.775915
                                                         0.181514       0.065997
                                                         0.120000      -0.317574
                                                         0.140000       0.307740
                          1       6    5py               3.817591      -0.947232
                                                         2.362752       1.731661
                                                         0.861004      -1.484366
                                                         0.417525       0.775915
                                                         0.181514       0.065997
                                                         0.120000      -0.317574
                                                         0.140000       0.307740
                          1       6    5pz               3.817591      -0.947232
                                                         2.362752       1.731661
                                                         0.861004      -1.484366
                                                         0.417525       0.775915
                                                         0.181514       0.065997
                                                         0.120000      -0.317574
                                                         0.140000       0.307740

                          1       7    4dx2              3.817591       0.133441
                                                         2.362752       0.805146
                                                         0.861004       0.452959
                                                         0.417525       0.174839
                                                         0.181514       0.017641
                                                         0.120000      -0.004028
                                                         0.140000       0.004216
                          1       7    4dxy              3.817591       0.231126
                                                         2.362752       1.394554
                                                         0.861004       0.784547
                                                         0.417525       0.302830
                                                         0.181514       0.030555
                                                         0.120000      -0.006976
                                                         0.140000       0.007302
                          1       7    4dxz              3.817591       0.231126
                                                         2.362752       1.394554
                                                         0.861004       0.784547
                                                         0.417525       0.302830
                                                         0.181514       0.030555
                                                         0.120000      -0.006976
                                                         0.140000       0.007302
                          1       7    4dy2              3.817591       0.133441
                                                         2.362752       0.805146
                                                         0.861004       0.452959
                                                         0.417525       0.174839
                                                         0.181514       0.017641
                                                         0.120000      -0.004028
                                                         0.140000       0.004216
                          1       7    4dyz              3.817591       0.231126
                                                         2.362752       1.394554
                                                         0.861004       0.784547
                                                         0.417525       0.302830
                                                         0.181514       0.030555
                                                         0.120000      -0.006976
                                                         0.140000       0.007302
                          1       7    4dz2              3.817591       0.133441
                                                         2.362752       0.805146
                                                         0.861004       0.452959
                                                         0.417525       0.174839
                                                         0.181514       0.017641
                                                         0.120000      -0.004028
                                                         0.140000       0.004216

     RI Auxiliary Basis Set                                 def2-SVP-RIFIT-mod-1

       Number of orbital shell sets:                                          13
       Number of orbital shells:                                              13
       Number of primitive Cartesian functions:                               13
       Number of Cartesian basis functions:                                   54
       Number of spherical basis functions:                                   45
       Norm type:                                                              2

       Normalised Cartesian orbitals:

                        Set   Shell   Orbital            Exponent    Coefficient

                          1       1    1s                0.197811       0.211396

                          2       1    1dx2              0.242242       0.137672
                          2       1    1dxy              0.242242       0.238455
                          2       1    1dxz              0.242242       0.238455
                          2       1    1dy2              0.242242       0.137672
                          2       1    1dyz              0.242242       0.238455
                          2       1    1dz2              0.242242       0.137672

                          3       1    1px               0.324549       0.349172
                          3       1    1py               0.324549       0.349172
                          3       1    1pz               0.324549       0.349172

                          4       1    1s                0.389135       0.351144

                          5       1    1fx3              0.529340       0.351850
                          5       1    1fx2y             0.529340       0.786760
                          5       1    1fx2z             0.529340       0.786760
                          5       1    1fxy2             0.529340       0.786760
                          5       1    1fxyz             0.529340       1.362708
                          5       1    1fxz2             0.529340       0.786760
                          5       1    1fy3              0.529340       0.351850
                          5       1    1fy2z             0.529340       0.786760
                          5       1    1fyz2             0.529340       0.786760
                          5       1    1fz3              0.529340       0.351850

                          6       1    1dx2              0.603367       0.679871
                          6       1    1dxy              0.603367       1.177572
                          6       1    1dxz              0.603367       1.177572
                          6       1    1dy2              0.603367       0.679871
                          6       1    1dyz              0.603367       1.177572
                          6       1    1dz2              0.603367       0.679871

                          7       1    1px               0.631252       0.802035
                          7       1    1py               0.631252       0.802035
                          7       1    1pz               0.631252       0.802035

                          8       1    1s                0.936032       0.678232

                          9       1    1dx2              1.115385       1.992520
                          9       1    1dxy              1.115385       3.451146
                          9       1    1dxz              1.115385       3.451146
                          9       1    1dy2              1.115385       1.992520
                          9       1    1dyz              1.115385       3.451146
                          9       1    1dz2              1.115385       1.992520

                         10       1    1fx3              1.132321       1.947088
                         10       1    1fx2y             1.132321       4.353822
                         10       1    1fx2z             1.132321       4.353822
                         10       1    1fxy2             1.132321       4.353822
                         10       1    1fxyz             1.132321       7.541040
                         10       1    1fxz2             1.132321       4.353822
                         10       1    1fy3              1.132321       1.947088
                         10       1    1fy2z             1.132321       4.353822
                         10       1    1fyz2             1.132321       4.353822
                         10       1    1fz3              1.132321       1.947088

                         11       1    1px               1.173306       1.740620
                         11       1    1py               1.173306       1.740620
                         11       1    1pz               1.173306       1.740620

                         12       1    1s                2.064006       1.227279

                         13       1    1px               2.625789       4.764474
                         13       1    1py               2.625789       4.764474
                         13       1    1pz               2.625789       4.764474

       Atomic covalent radius [Angstrom]:                                  1.020

       Atomic van der Waals radius [Angstrom]:                             1.800

     GTH Potential information for                                   GTH-PADE-q6

       Description:                       Goedecker-Teter-Hutter pseudopotential
                                           Goedecker et al., PRB 54, 1703 (1996)
                                          Hartwigsen et al., PRB 58, 3641 (1998)
                                                      Krack, TCA 114, 145 (2005)

       Gaussian exponent of the core charge distribution:               2.834467
       Electronic configuration (s p d ...):                               2   4

       Parameters of the local part of the GTH pseudopotential:

                          rloc        C1          C2          C3          C4
                        0.420000   -6.554492

       Parameters of the non-local part of the GTH pseudopotential:

                   l      r(l)      h(i,j,l)

                   0    0.361757    7.905303   -1.731881
                                   -1.731881    4.471698
                   1    0.405285    3.866579


 MOLECULE KIND INFORMATION


 All atoms are their own molecule, skipping detailed information


 TOTAL NUMBERS AND MAXIMUM NUMBERS

  Total number of            - Atomic kinds:                                   2
                             - Atoms:                                        588
                             - Shell sets:                                   588
                             - Shells:                                      4900
                             - Primitive Cartesian functions:               4116
                             - Cartesian basis functions:                  15092
                             - Spherical basis functions:                  13524

  Maximum angular momentum of- Orbital basis functions:                        3
                             - Local part of the GTH pseudopotential:          2
                             - Non-local part of the GTH pseudopotential:      4


 MODULE QUICKSTEP: ATOMIC COORDINATES IN ANGSTROM

   Atom Kind Element         X             Y             Z       Z(eff)     Mass
      1    1 Mo   42      0.000000      1.818650      3.075000  14.0000  95.9600
      2    2 S    16      0.000000      3.637310      1.488300   6.0000  32.0650
      3    2 S    16      0.000000      3.637310      4.661700   6.0000  32.0650
      4    1 Mo   42      3.150000      1.818650      3.075000  14.0000  95.9600
      5    2 S    16      3.150000      3.637310      1.488300   6.0000  32.0650
      6    2 S    16      3.150000      3.637310      4.661700   6.0000  32.0650
      7    1 Mo   42      6.300000      1.818650      3.075000  14.0000  95.9600
      8    2 S    16      6.300000      3.637310      1.488300   6.0000  32.0650
      9    2 S    16      6.300000      3.637310      4.661700   6.0000  32.0650
     10    1 Mo   42      9.450000      1.818650      3.075000  14.0000  95.9600
     11    2 S    16      9.450000      3.637310      1.488300   6.0000  32.0650
     12    2 S    16      9.450000      3.637310      4.661700   6.0000  32.0650
     13    1 Mo   42     12.600000      1.818650      3.075000  14.0000  95.9600
     14    2 S    16     12.600000      3.637310      1.488300   6.0000  32.0650
     15    2 S    16     12.600000      3.637310      4.661700   6.0000  32.0650
     16    1 Mo   42     15.750000      1.818650      3.075000  14.0000  95.9600
     17    2 S    16     15.750000      3.637310      1.488300   6.0000  32.0650
     18    2 S    16     15.750000      3.637310      4.661700   6.0000  32.0650
     19    1 Mo   42     18.900000      1.818650      3.075000  14.0000  95.9600
     20    2 S    16     18.900000      3.637310      1.488300   6.0000  32.0650
     21    2 S    16     18.900000      3.637310      4.661700   6.0000  32.0650
     22    1 Mo   42     22.050000      1.818650      3.075000  14.0000  95.9600
     23    2 S    16     22.050000      3.637310      1.488300   6.0000  32.0650
     24    2 S    16     22.050000      3.637310      4.661700   6.0000  32.0650
     25    1 Mo   42     25.200000      1.818650      3.075000  14.0000  95.9600
     26    2 S    16     25.200000      3.637310      1.488300   6.0000  32.0650
     27    2 S    16     25.200000      3.637310      4.661700   6.0000  32.0650
     28    1 Mo   42     28.350000      1.818650      3.075000  14.0000  95.9600
     29    2 S    16     28.350000      3.637310      1.488300   6.0000  32.0650
     30    2 S    16     28.350000      3.637310      4.661700   6.0000  32.0650
     31    1 Mo   42     31.500000      1.818650      3.075000  14.0000  95.9600
     32    2 S    16     31.500000      3.637310      1.488300   6.0000  32.0650
     33    2 S    16     31.500000      3.637310      4.661700   6.0000  32.0650
     34    1 Mo   42     34.650000      1.818650      3.075000  14.0000  95.9600
     35    2 S    16     34.650000      3.637310      1.488300   6.0000  32.0650
     36    2 S    16     34.650000      3.637310      4.661700   6.0000  32.0650
     37    1 Mo   42     37.800000      1.818650      3.075000  14.0000  95.9600
     38    2 S    16     37.800000      3.637310      1.488300   6.0000  32.0650
     39    2 S    16     37.800000      3.637310      4.661700   6.0000  32.0650
     40    1 Mo   42     40.950000      1.818650      3.075000  14.0000  95.9600
     41    2 S    16     40.950000      3.637310      1.488300   6.0000  32.0650
     42    2 S    16     40.950000      3.637310      4.661700   6.0000  32.0650
     43    1 Mo   42     -1.575000      4.546630      3.075000  14.0000  95.9600
     44    2 S    16     -1.575000      6.365290      1.488300   6.0000  32.0650
     45    2 S    16     -1.575000      6.365290      4.661700   6.0000  32.0650
     46    1 Mo   42      1.575000      4.546630      3.075000  14.0000  95.9600
     47    2 S    16      1.575000      6.365290      1.488300   6.0000  32.0650
     48    2 S    16      1.575000      6.365290      4.661700   6.0000  32.0650
     49    1 Mo   42      4.725000      4.546630      3.075000  14.0000  95.9600
     50    2 S    16      4.725000      6.365290      1.488300   6.0000  32.0650
     51    2 S    16      4.725000      6.365290      4.661700   6.0000  32.0650
     52    1 Mo   42      7.875000      4.546630      3.075000  14.0000  95.9600
     53    2 S    16      7.875000      6.365290      1.488300   6.0000  32.0650
     54    2 S    16      7.875000      6.365290      4.661700   6.0000  32.0650
     55    1 Mo   42     11.025000      4.546630      3.075000  14.0000  95.9600
     56    2 S    16     11.025000      6.365290      1.488300   6.0000  32.0650
     57    2 S    16     11.025000      6.365290      4.661700   6.0000  32.0650
     58    1 Mo   42     14.175000      4.546630      3.075000  14.0000  95.9600
     59    2 S    16     14.175000      6.365290      1.488300   6.0000  32.0650
     60    2 S    16     14.175000      6.365290      4.661700   6.0000  32.0650
     61    1 Mo   42     17.325000      4.546630      3.075000  14.0000  95.9600
     62    2 S    16     17.325000      6.365290      1.488300   6.0000  32.0650
     63    2 S    16     17.325000      6.365290      4.661700   6.0000  32.0650
     64    1 Mo   42     20.475000      4.546630      3.075000  14.0000  95.9600
     65    2 S    16     20.475000      6.365290      1.488300   6.0000  32.0650
     66    2 S    16     20.475000      6.365290      4.661700   6.0000  32.0650
     67    1 Mo   42     23.625000      4.546630      3.075000  14.0000  95.9600
     68    2 S    16     23.625000      6.365290      1.488300   6.0000  32.0650
     69    2 S    16     23.625000      6.365290      4.661700   6.0000  32.0650
     70    1 Mo   42     26.775000      4.546630      3.075000  14.0000  95.9600
     71    2 S    16     26.775000      6.365290      1.488300   6.0000  32.0650
     72    2 S    16     26.775000      6.365290      4.661700   6.0000  32.0650
     73    1 Mo   42     29.925000      4.546630      3.075000  14.0000  95.9600
     74    2 S    16     29.925000      6.365290      1.488300   6.0000  32.0650
     75    2 S    16     29.925000      6.365290      4.661700   6.0000  32.0650
     76    1 Mo   42     33.075000      4.546630      3.075000  14.0000  95.9600
     77    2 S    16     33.075000      6.365290      1.488300   6.0000  32.0650
     78    2 S    16     33.075000      6.365290      4.661700   6.0000  32.0650
     79    1 Mo   42     36.225000      4.546630      3.075000  14.0000  95.9600
     80    2 S    16     36.225000      6.365290      1.488300   6.0000  32.0650
     81    2 S    16     36.225000      6.365290      4.661700   6.0000  32.0650
     82    1 Mo   42     39.375000      4.546630      3.075000  14.0000  95.9600
     83    2 S    16     39.375000      6.365290      1.488300   6.0000  32.0650
     84    2 S    16     39.375000      6.365290      4.661700   6.0000  32.0650
     85    1 Mo   42     -3.150000      7.274610      3.075000  14.0000  95.9600
     86    2 S    16     -3.150000      9.093270      1.488300   6.0000  32.0650
     87    2 S    16     -3.150000      9.093270      4.661700   6.0000  32.0650
     88    1 Mo   42      0.000000      7.274610      3.075000  14.0000  95.9600
     89    2 S    16      0.000000      9.093270      1.488300   6.0000  32.0650
     90    2 S    16      0.000000      9.093270      4.661700   6.0000  32.0650
     91    1 Mo   42      3.150000      7.274610      3.075000  14.0000  95.9600
     92    2 S    16      3.150000      9.093270      1.488300   6.0000  32.0650
     93    2 S    16      3.150000      9.093270      4.661700   6.0000  32.0650
     94    1 Mo   42      6.300000      7.274610      3.075000  14.0000  95.9600
     95    2 S    16      6.300000      9.093270      1.488300   6.0000  32.0650
     96    2 S    16      6.300000      9.093270      4.661700   6.0000  32.0650
     97    1 Mo   42      9.450000      7.274610      3.075000  14.0000  95.9600
     98    2 S    16      9.450000      9.093270      1.488300   6.0000  32.0650
     99    2 S    16      9.450000      9.093270      4.661700   6.0000  32.0650
    100    1 Mo   42     12.600000      7.274610      3.075000  14.0000  95.9600
    101    2 S    16     12.600000      9.093270      1.488300   6.0000  32.0650
    102    2 S    16     12.600000      9.093270      4.661700   6.0000  32.0650
    103    1 Mo   42     15.750000      7.274610      3.075000  14.0000  95.9600
    104    2 S    16     15.750000      9.093270      1.488300   6.0000  32.0650
    105    2 S    16     15.750000      9.093270      4.661700   6.0000  32.0650
    106    1 Mo   42     18.900000      7.274610      3.075000  14.0000  95.9600
    107    2 S    16     18.900000      9.093270      1.488300   6.0000  32.0650
    108    2 S    16     18.900000      9.093270      4.661700   6.0000  32.0650
    109    1 Mo   42     22.050000      7.274610      3.075000  14.0000  95.9600
    110    2 S    16     22.050000      9.093270      1.488300   6.0000  32.0650
    111    2 S    16     22.050000      9.093270      4.661700   6.0000  32.0650
    112    1 Mo   42     25.200000      7.274610      3.075000  14.0000  95.9600
    113    2 S    16     25.200000      9.093270      1.488300   6.0000  32.0650
    114    2 S    16     25.200000      9.093270      4.661700   6.0000  32.0650
    115    1 Mo   42     28.350000      7.274610      3.075000  14.0000  95.9600
    116    2 S    16     28.350000      9.093270      1.488300   6.0000  32.0650
    117    2 S    16     28.350000      9.093270      4.661700   6.0000  32.0650
    118    1 Mo   42     31.500000      7.274610      3.075000  14.0000  95.9600
    119    2 S    16     31.500000      9.093270      1.488300   6.0000  32.0650
    120    2 S    16     31.500000      9.093270      4.661700   6.0000  32.0650
    121    1 Mo   42     34.650000      7.274610      3.075000  14.0000  95.9600
    122    2 S    16     34.650000      9.093270      1.488300   6.0000  32.0650
    123    2 S    16     34.650000      9.093270      4.661700   6.0000  32.0650
    124    1 Mo   42     37.800000      7.274610      3.075000  14.0000  95.9600
    125    2 S    16     37.800000      9.093270      1.488300   6.0000  32.0650
    126    2 S    16     37.800000      9.093270      4.661700   6.0000  32.0650
    127    1 Mo   42     -4.725000     10.002590      3.075000  14.0000  95.9600
    128    2 S    16     -4.725000     11.821250      1.488300   6.0000  32.0650
    129    2 S    16     -4.725000     11.821250      4.661700   6.0000  32.0650
    130    1 Mo   42     -1.575000     10.002590      3.075000  14.0000  95.9600
    131    2 S    16     -1.575000     11.821250      1.488300   6.0000  32.0650
    132    2 S    16     -1.575000     11.821250      4.661700   6.0000  32.0650
    133    1 Mo   42      1.575000     10.002590      3.075000  14.0000  95.9600
    134    2 S    16      1.575000     11.821250      1.488300   6.0000  32.0650
    135    2 S    16      1.575000     11.821250      4.661700   6.0000  32.0650
    136    1 Mo   42      4.725000     10.002590      3.075000  14.0000  95.9600
    137    2 S    16      4.725000     11.821250      1.488300   6.0000  32.0650
    138    2 S    16      4.725000     11.821250      4.661700   6.0000  32.0650
    139    1 Mo   42      7.875000     10.002590      3.075000  14.0000  95.9600
    140    2 S    16      7.875000     11.821250      1.488300   6.0000  32.0650
    141    2 S    16      7.875000     11.821250      4.661700   6.0000  32.0650
    142    1 Mo   42     11.025000     10.002590      3.075000  14.0000  95.9600
    143    2 S    16     11.025000     11.821250      1.488300   6.0000  32.0650
    144    2 S    16     11.025000     11.821250      4.661700   6.0000  32.0650
    145    1 Mo   42     14.175000     10.002590      3.075000  14.0000  95.9600
    146    2 S    16     14.175000     11.821250      1.488300   6.0000  32.0650
    147    2 S    16     14.175000     11.821250      4.661700   6.0000  32.0650
    148    1 Mo   42     17.325000     10.002590      3.075000  14.0000  95.9600
    149    2 S    16     17.325000     11.821250      1.488300   6.0000  32.0650
    150    2 S    16     17.325000     11.821250      4.661700   6.0000  32.0650
    151    1 Mo   42     20.475000     10.002590      3.075000  14.0000  95.9600
    152    2 S    16     20.475000     11.821250      1.488300   6.0000  32.0650
    153    2 S    16     20.475000     11.821250      4.661700   6.0000  32.0650
    154    1 Mo   42     23.625000     10.002590      3.075000  14.0000  95.9600
    155    2 S    16     23.625000     11.821250      1.488300   6.0000  32.0650
    156    2 S    16     23.625000     11.821250      4.661700   6.0000  32.0650
    157    1 Mo   42     26.775000     10.002590      3.075000  14.0000  95.9600
    158    2 S    16     26.775000     11.821250      1.488300   6.0000  32.0650
[...]
 flops    35 x    35 x    64       29751132902400     100.0%      0.0%      0.0%
 flops inhomo. stacks               1583773866360     100.0%      0.0%      0.0%
 flops total                       135.870246E+12     100.0%      0.0%      0.0%
 flops max/rank                    198.848544E+09     100.0%      0.0%      0.0%
 matmuls inhomo. stacks                     48484     100.0%      0.0%      0.0%
 matmuls total                         1871146896     100.0%      0.0%      0.0%
 number of processed stacks              60226772     100.0%      0.0%      0.0%
 average stack size                                    31.1       0.0       0.0
 marketing flops                    49.691329E+12
 -------------------------------------------------------------------------------
 # multiplications                             55
 max memory usage/rank               5.620892E+09
 # max total images/rank                       17
 # max 3D layers                                1
 # MPI messages exchanged                17413440
 MPI messages size (bytes):
  total size                         6.248481E+12
  min size                           0.000000E+00
  max size                         985.320000E+03
  average size                     358.830906E+03
 MPI breakdown and total messages size (bytes):
             size <=      128              123420                        0
       128 < size <=     8192                2508                 17018496
      8192 < size <=    32768              158895               2753239104
     32768 < size <=   131072             7571113             770551574848
    131072 < size <=  4194304             9557504            5475106539584
   4194304 < size <= 16777216                   0                        0
  16777216 < size                               0                        0
 -------------------------------------------------------------------------------

 *** WARNING in dbcsr_mm.F:290 :: Using a non-square number of MPI ranks ***
 *** might lead to poor performance. Used ranks: 816 Suggested: 841 1600 ***

 -------------------------------------------------------------------------------
 -                                                                             -
 -                      DBCSR MESSAGE PASSING PERFORMANCE                      -
 -                                                                             -
 -------------------------------------------------------------------------------
 ROUTINE             CALLS      AVE VOLUME [Bytes]
 MP_Bcast              409                     12.
 MP_Allreduce         1208                     20.
 MP_Alltoall        100475                2542298.
 MP_ISend            44080                 175545.
 MP_IRecv            43670                 176639.
 -------------------------------------------------------------------------------

 -------------------------------------------------------------------------------
 -                                                                             -
 -                                DBM STATISTICS                               -
 -                                                                             -
 -------------------------------------------------------------------------------
    M  x    N  x    K                                          COUNT     PERCENT
    ?  x    ?  x  ???                                   276619901306       9.32%
    ?  x >999  x   ??                                    18057887081       0.61%
   ??  x  ???  x   ??                                    18022021248       0.61%
    ?  x >999  x    ?                                    90695220712       3.05%
    ?  x  ???  x    ?                                   485461383068      16.35%
   ??  x  ???  x    ?                                    85835163874       2.89%
    ?  x   ??  x  ???                                    55760282407       1.88%
    ?  x    ?  x >999                                    59968473315       2.02%
   ??  x    ?  x >999                                    12047887374       0.41%
  ???  x   ??  x   ??                                   325548608884      10.96%
   ??  x   ??  x   ??                                    54866605273       1.85%
    ?  x  ???  x   ??                                   102064609052       3.44%
   ??  x >999  x   ??                                     3188335920       0.11%
   ??  x >999  x    ?                                    16035329032       0.54%
    ?  x   ??  x >999                                    11647314511       0.39%
   ??  x   ??  x  ???                                   277754008080       9.35%
    ?  x    ?  x    ?                                  1015992244244      34.22%
   ??  x   ??  x >999                                     2332771776       0.08%
   ??  x    ?  x  ???                                    57293329350       1.93%
 -------------------------------------------------------------------------------

 -------------------------------------------------------------------------------
 -                                                                             -
 -                                GRID STATISTICS                              -
 -                                                                             -
 -------------------------------------------------------------------------------
 LP    KERNEL             BACKEND                              COUNT     PERCENT
 5     collocate general  REF                               80781792      22.68%
 5     integrate general  REF                               80781792      22.68%
 4     collocate general  REF                               74024496      20.78%
 4     integrate general  REF                               74024496      20.78%
 6     collocate general  REF                               22575280       6.34%
 6     integrate general  REF                               22575280       6.34%
 0     collocate general  REF                                 959616       0.27%
 0     integrate general  REF                                 479808       0.13%
 -------------------------------------------------------------------------------

 MEMORY| Estimated peak process memory [MiB]                               23681

 -------------------------------------------------------------------------------
 ----                             MULTIGRID INFO                            ----
 -------------------------------------------------------------------------------
 count for grid        1:       28053004          cutoff [a.u.]          250.00
 count for grid        2:       14537036          cutoff [a.u.]           83.33
 count for grid        3:       15245992          cutoff [a.u.]           27.78
 count for grid        4:         140352          cutoff [a.u.]            9.26
 total gridlevel count  :       57976384

 -------------------------------------------------------------------------------
 -                                                                             -
 -                         MESSAGE PASSING PERFORMANCE                         -
 -                                                                             -
 -------------------------------------------------------------------------------

 ROUTINE             CALLS      AVE VOLUME [Bytes]
 MP_Group             5945
 MP_Bcast            21372                 125691.
 MP_Allreduce        12307                  28371.
 MP_Sync              9650
 MP_Alltoall          4666                 937683.
 MP_SendRecv         84760                  18752.
 MP_ISendRecv        84760                  18752.
 MP_Wait            103222
 MP_comm_split        3518
 MP_ISend          1066932                 534720.
 MP_IRecv          1024656                 551435.
 MP_Recv              1266                3462144.
 -------------------------------------------------------------------------------


 -------------------------------------------------------------------------------
 -                                                                             -
 -                           R E F E R E N C E S                               -
 -                                                                             -
 -------------------------------------------------------------------------------
 
 CP2K version 2023.1 (Development Version), the CP2K developers group (2023).
 CP2K is freely available from https://www.cp2k.org/ .

 Kuehne,Thomas D.; Iannuzzi,Marcella; Del Ben,Mauro;
 Rybkin,Vladimir V.; Seewald,Patrick; Stein,Frederick; Laino,Teodoro;
 Khaliullin,Rustam Z.; Schuett,Ole; Schiffmann,Florian; Golze,Dorothea;
 Wilhelm,Jan; Chulkov,Sergey; Bani-Hashemian,Mohammad Hossein;
 Weber,Valery; Borstnik,Urban; Taillefumier,Mathieu;
 Jakobovits,Alice Shoshana; Lazzaro,Alfio; Pabst,Hans; Mueller,Tiziano;
 Schade,Robert; Guidon,Manuel; Andermatt,Samuel; Holmberg,Nico;
 Schenter,Gregory K.; Hehn,Anna; Bussy,Augustin; Belleflamme,Fabian;
 Tabacchi,Gloria; Gloess,Andreas; Lass,Michael; Bethune,Iain;
 Mundy,Christopher J.; Plessl,Christian; Watkins,Matt;
 VandeVondele,Joost; Krack,Matthias; Hutter,Juerg. 
 The Journal of Chemical Physics, 152 (19), (2020). 
 CP2K: An electronic structure and molecular dynamics software package -
 Quickstep: Efficient and accurate electronic structure calculations.
 https://doi.org/10.1063/5.0007045

 Wilhelm, J; Golze, D; Talirz, L; Hutter, J; Pignedoli, CA. 
 JOURNAL OF PHYSICAL CHEMISTRY LETTERS, 9, 306-312 (2018). 
 Toward GW calculations on thousands of atoms.
 https://doi.org/10.1021/acs.jpclett.7b02740

 Wilhelm, J; Hutter, J. PHYSICAL REVIEW B, 95, 235123 (2017). 
 Periodic GW calculations in the Gaussian and plane-waves scheme.
 https://doi.org/10.1103/PhysRevB.95.235123

 Wilhelm, J; Del Ben, M; Hutter, J. 
 JOURNAL OF CHEMICAL THEORY AND COMPUTATION, 12, 3623-3635 (2016). 
 GW in the Gaussian and plane waves scheme with application to linear acenes.
 https://doi.org/10.1021/acs.jctc.6b00380

 Wilhelm, J; Seewald, P; Del Ben, M; Hutter, J. 
 JOURNAL OF CHEMICAL THEORY AND COMPUTATION, 12, 5851-5859 (2016). 
 Large-Scale Cubic-Scaling Random Phase Approximation Correlation.
 https://doi.org/10.1021/acs.jctc.6b00840

 Schuett, Ole; Messmer, Peter; Hutter, Juerg; VandeVondele, Joost. 
 Electronic Structure Calculations on Graphics Processing Units, John
 Wiley & Sons, Ltd, 173-190 (2016). 
 GPU-Accelerated Sparse Matrix-Matrix Multiplication for
 Linear Scaling Density Functional Theory.
 https://doi.org/10.1002/9781118670712.ch8

 Del Ben, M; Schuett, O; Wentz, T; Messmer, P; Hutter, J;
 VandeVondele, J. 
 COMPUTER PHYSICS COMMUNICATIONS, 187, 120-129 (2015). 
 Enabling simulation at the fifth rung of DFT: Large scale RPA
 calculations with excellent time to solution.
 https://doi.org/10.1016/j.cpc.2014.10.021

 Borstnik, U; VandeVondele, J; Weber, V; Hutter, J. 
 PARALLEL COMPUTING, 40 (5-6), 47-58 (2014). 
 Sparse matrix multiplication: The distributed block-compressed sparse
 row library.
 https://doi.org/10.1016/j.parco.2014.03.012

 Hutter, J; Iannuzzi, M; Schiffmann, F; VandeVondele, J. 
 WIREs Comput Mol Sci., 4 (1), 15-25 (2014). 
 CP2K: atomistic simulations of condensed matter systems.
 https://doi.org/10.1002/wcms.1159

 Del Ben, M; Hutter, J; VandeVondele, J. 
 JOURNAL OF CHEMICAL THEORY AND COMPUTATION, 9 (6), 2654-2671 (2013). 
 Electron Correlation in the Condensed Phase from a Resolution of
 Identity Approach Based on the Gaussian and Plane Waves Scheme.
 https://doi.org/10.1021/ct4002202

 Del Ben, M; Hutter, J; VandeVondele, J. 
 JOURNAL OF CHEMICAL THEORY AND COMPUTATION, 8 (11), 4177-4188 (2012). 
 Second-Order Moller-Plesset Perturbation Theory in the Condensed Phase:
 An Efficient and Massively Parallel Gaussian and Plane Waves Approach.
 https://doi.org/10.1021/ct300531w

 VandeVondele, J; Hutter, J. 
 JOURNAL OF CHEMICAL PHYSICS, 127 (11), 114105 (2007). 
 Gaussian basis sets for accurate calculations on molecular systems in
 gas and condensed phases.
 https://doi.org/10.1063/1.2770708

 Krack, M. 
 THEORETICAL CHEMISTRY ACCOUNTS, 114 (1-3), 145-152 (2005). 
 Pseudopotentials for H to Kr optimized for gradient-corrected
 exchange-correlation functionals.
 https://doi.org/10.1007/s00214-005-0655-y

 VandeVondele, J; Krack, M; Mohamed, F; Parrinello, M; Chassaing, T;
 Hutter, J. COMPUTER PHYSICS COMMUNICATIONS, 167 (2), 103-128 (2005). 
 QUICKSTEP: Fast and accurate density functional calculations using a
 mixed Gaussian and plane waves approach.
 https://doi.org/10.1016/j.cpc.2004.12.014

 Frigo, M; Johnson, SG. 
 PROCEEDINGS OF THE IEEE, 93 (2), 216-231 (2005). 
 The design and implementation of FFTW3.
 https://doi.org/10.1109/JPROC.2004.840301

 Hartwigsen, C; Goedecker, S; Hutter, J. 
 PHYSICAL REVIEW B, 58 (7), 3641-3662 (1998). 
 Relativistic separable dual-space Gaussian pseudopotentials from H to Rn.
 https://doi.org/10.1103/PhysRevB.58.3641

 Lippert, G; Hutter, J; Parrinello, M. 
 MOLECULAR PHYSICS, 92 (3), 477-487 (1997). 
 A hybrid Gaussian and plane wave density functional scheme.
 https://doi.org/10.1080/002689797170220

 Goedecker, S; Teter, M; Hutter, J. 
 PHYSICAL REVIEW B, 54 (3), 1703-1710 (1996). 
 Separable dual-space Gaussian pseudopotentials.
 https://doi.org/10.1103/PhysRevB.54.1703


 -------------------------------------------------------------------------------
 -                                                                             -
 -                                T I M I N G                                  -
 -                                                                             -
 -------------------------------------------------------------------------------
 SUBROUTINE                       CALLS  ASD         SELF TIME        TOTAL TIME
                                MAXIMUM       AVERAGE  MAXIMUM  AVERAGE  MAXIMUM
 CP2K                                 1  1.0     0.03     0.09 74676.56 74676.56
 qs_energies                          1  2.0     0.00     0.00 74675.02 74675.61
 mp2_main                             1  3.0     0.00     0.00 73502.54 73503.13
 mp2_gpw_main                         1  4.0     0.01     0.01 73484.79 73485.38
 rpa_ri_compute_en                    1  5.0     0.00     0.07 67048.69 67049.28
 rpa_num_int                          1  6.0     0.00     0.03 65069.09 65069.66
 dbt_total                         1907  9.8     0.05     0.23 33714.90 33714.95
 dbt_contract                       765 11.0     0.42     0.66 31811.01 31814.62
 dbt_tas_total                     1206 13.4  2034.29  2295.54 31484.86 31484.88
 dbt_tas_multiply                  1065 12.8     0.00     0.00 31348.20 31348.24
 rpa_num_int_RPA_matrix_operati      10  7.0     0.00     0.00 28063.18 28063.23
 invert_eps_compute_W_and_Erpa_      10  8.0     0.00     0.01 28063.13 28063.18
 compute_QP_energies                  1  7.0     0.00     0.00 27590.02 27590.02
 compute_self_energy_cubic_gw_k       1  8.0     0.38     0.42 27589.24 27589.87
 dbt_tas_dbm                       1065 14.8     0.01     0.01 25998.92 25998.95
 dbm_multiply                      1065 16.8 22045.12 23390.81 22045.12 23390.81
 compute_Q_kp_RPA                   260  9.0     2.44     2.66 20794.44 20809.86
 cp_cfm_power                       312  9.7     1.71     2.30 20051.71 20054.28
 cp_cfm_heevd                       441 10.2 18858.03 18867.14 18858.03 18867.14
 tensor_operation_3c_W               99  9.0     0.00     0.00 13741.63 13754.83
 parallel_gemm_cfm                 4194 10.2     0.02     0.02 13458.84 13523.11
 parallel_gemm_cfm_gemm            4194 11.2     0.01     0.02 13458.82 13523.09
 cp_cfm_gemm                       4194 12.2 13458.81 13523.08 13458.81 13523.08
 dbt_tas_mm_3N                      198 16.5     0.00     0.00 10858.75 11496.84
 contract_to_self_energy            198  9.0     0.03     0.03 10982.47 10994.43
 compute_mat_P_omega                  1  7.0     0.00     0.00  9385.63  9385.69
 compute_mat_P_omega_contract        10  8.0    11.26    11.95  9301.68  9301.81
 dbt_tas_mm_2                       289 15.0     0.00     0.00  7714.99  7715.01
 mp2_ri_gpw_compute_in                1  5.0     0.00     0.00  6436.05  6436.06
 compute_Wc_real_space_tau_GW       260  9.0     0.00     0.00  6240.92  6242.59
 get_2c_integrals                     1  6.0     0.00     0.00  5979.70  5979.70
 mp_sync                           9650 12.6  4792.88  5942.62  4792.88  5942.62
 compute_Wc_real_space_tau_GW_3     260 10.0     0.00     0.00  4420.84  4458.09
 compute_mat_P_omega_calc_P_t        90  9.0     0.00     0.00  4451.23  4451.24
 inversion_of_M_and_mult_with_c       1  7.0     0.01     0.04  3348.23  3348.25
 dbt_tas_mm_3T                      396 16.5     0.00     0.00  2807.54  2915.27
 trafo_to_mo_and_kpoints             21  9.0     0.83     0.90  2657.12  2657.13
 dbt_tas_mm_1N                      182 15.0     0.00     0.00  2213.60  2462.28
 get_bandstruc_and_k_dependent_       1  6.0     0.00     0.00  1979.59  1979.65
 create_kp_and_calc_kp_orbitals       3  7.0     0.01     0.01  1979.59  1979.65
 compute_mat_P_omega_calc_M_occ      90  9.0    11.21    11.93  1959.53  1959.54
 cp_cfm_geeig                       129  8.0     0.01     0.01  1938.42  1946.20
 compute_mat_P_omega_calc_M_vir      90  9.0     0.00     0.00  1894.78  1894.78
 compute_Wc_real_space_tau_GW_2     260 10.0     0.26     0.30  1730.78  1747.80
 cp_cfm_cholesky_invert             260 11.0  1641.38  1643.09  1641.38  1643.09
 dbt_copy                           949 10.8     0.11     0.20  1333.82  1447.27
 dbt_reshape                        929 11.8   493.62   524.72  1320.78  1434.00
 mp_waitall_2                      5523 16.8  1230.52  1403.29  1230.52  1403.29
 compute_V_by_lattice_sum             1  7.0     0.00     0.00  1357.64  1357.64
 build_2c_coulomb_matrix_kp           2  8.0     0.00     0.00  1054.86  1352.96
 lattice_sum                          2  9.0    44.62    54.77  1054.85  1352.95
 compute_v_transl                 13312 10.0   995.93  1280.75  1009.66  1297.61
 compute_2c_integrals                 1  7.0     0.00     0.00  1254.14  1254.14
 fill_fm_L_from_L_loc_non_block       1  8.0     0.00     0.00  1115.26  1253.53
 fill_fm_L_from_L_loc_non_block       1  9.0  1115.13  1253.41  1115.13  1253.41
 dbt_tas_replicate                  928 15.0   471.33   589.31  1133.27  1189.64
 scf_env_do_scf                       1  3.0     0.00     0.00  1154.99  1155.67
 scf_env_do_scf_inner_loop           51  4.0     0.00     0.00  1154.99  1155.67
 cp_cfm_cholesky_decompose          389  9.7   879.90   880.07   879.90   880.07
 cholesky_decomp_Q                  260  9.0     2.96     3.37   841.89   867.69
 dbt_communicate_buffer             929 12.8     0.55     0.61   756.49   856.45
 copy_dbcsr_to_fm                  3885 10.4     0.16     0.19   391.62   854.04
 dbm_redistribute                  1794 15.7   825.38   852.27   825.38   852.27
 mp_alltoall_i22                  15465 12.6   353.74   849.77   353.74   849.77
 mp_sum_l                          6735 13.9   450.27   796.61   450.27   796.61
 dbcsr_desymmetrize_deep           3945 11.4     2.57     3.12   331.70   794.55
 -------------------------------------------------------------------------------

 The number of warnings for this run is : 2
 
 -------------------------------------------------------------------------------
  **** **** ******  **  PROGRAM ENDED AT                 2023-03-12 11:50:27.587
 ***** ** ***  *** **   PROGRAM RAN ON                              f01r01c03s01
 **    ****   ******    PROGRAM RAN BY                                   di76zil
 ***** **    ** ** **   PROGRAM PROCESS ID                                637597
  **** **  *******  **  PROGRAM STOPPED IN /hppfs/work/pn72pa/di76zil/11_2D_peri
                                           odic_materials/02_MoS2/14x14_supercel
                                           l/3_TZVP_MOLOPT/07_LDA_reg_1e-2
