     984
 i =       13, E =    -28858.4958269076
 Mo        20.6147214079       35.7067011932       13.4916993173
 Mo        23.9009096128       35.4830080481       13.4938514589
 Mo        27.1796369229       35.2495679396       13.4940293723
 Mo        30.4636215803       35.0236569496       13.5008799433
 Mo        33.7425475281       34.7961809549       13.4979911935
 Mo        37.0270778714       34.5712127289       13.4924508216
 Mo        40.3144668308       34.3454937219       13.4945113801
 Mo        43.5943920330       34.1108646229       13.4939677146
 Mo        46.8781654152       33.8860919583       13.4999827853
 Mo        50.1555174119       33.6601371915       13.4970954884
 Mo        53.4394690406       33.4348760999       13.4934005027
 Mo        56.7275063364       33.2074934463       13.4959079328
 Mo        60.0087133726       32.9727015948       13.4938399281
 Mo        22.0617348437       32.7493381475       13.4983908854
 Mo        25.3382659952       32.5239483700       13.4959262440
 Mo        28.6214833845       32.2976860553       13.4946345094
 Mo        31.9094029085       32.0692772365       13.4978118356
 Mo        35.1915676699       31.8352663889       13.4937435711
 Mo        38.4759423804       31.6132024748       13.4964625523
 Mo        41.7524605368       31.3872777161       13.4948204205
 Mo        45.0349136354       31.1597517853       13.4961056166
 Mo        48.3218470007       30.9311057660       13.4996799453
 Mo        51.6041953382       30.6985964754       13.4935866036
 Mo        54.8899460857       30.4772722055       13.4946494706
 Mo        58.1672343655       30.2499675016       13.4940354942
 Mo        20.2183164070       30.0212715560       13.4973429180
 Mo        23.5035522078       29.7932346956       13.5009397663
 Mo        26.7853920009       29.5627209679       13.4934237053
 Mo        30.0727322552       29.3414810312       13.4935829199
 Mo        33.3514405758       29.1121036459       13.4936894235
 Mo        36.6331363597       28.8825658987       13.4979591253
 Mo        39.9163510139       28.6557918680       13.5013388829
 Mo        43.1971436969       28.4272286004       13.4933757938
 Mo        46.4858350645       28.2053726931       13.4935366070
 Mo        49.7661824315       27.9738172846       13.4936911715
 Mo        53.0481417615       27.7440551504       13.4978274395
 Mo        56.3295978450       27.5189273590       13.5008790563
 Mo        18.3784235629       27.2916009788       13.4934203575
 Mo        21.6678513397       27.0685455771       13.4943869447
 Mo        24.9496709791       26.8353556602       13.4939820123
 Mo        28.2322359385       26.6061270252       13.4970981296
 Mo        31.5124983084       26.3826345559       13.4996950429
 Mo        34.7910678515       26.1554490688       13.4935217294
 Mo        38.0804936266       25.9309939863       13.4959596405
 Mo        41.3633811250       25.6969420778       13.4946019340
 Mo        44.6467335466       25.4688882248       13.4959774738
 Mo        47.9265343217       25.2465332492       13.4979790098
 Mo        51.2044060895       25.0185980011       13.4937425915
 Mo        54.4931573579       24.7930262960       13.4979829991
 Mo        16.5455887224       24.5589729828       13.4954047696
 Mo        19.8298696008       24.3323444121       13.4946317263
 Mo        23.1100987570       24.1102419560       13.4961065387
 Mo        26.3877532619       23.8811127866       13.4941477528
 Mo        29.6752183869       23.6549010426       13.4999633369
 Mo        32.9579175291       23.4217431778       13.4960981061
 Mo        36.2432106712       23.1964509860       13.4933628086
 Mo        39.5246526819       22.9735133711       13.4946231619
 Mo        42.8025729760       22.7428251492       13.4946086119
 Mo        46.0885366102       22.5165761944       13.5013374096
 Mo        49.3699220358       22.2852974778       13.4964433224
 Mo        52.6560567430       22.0610313117       13.4924279870
 Mo        14.7083657245       21.8362800939       13.4938861503
 Mo        17.9869794928       21.6040416582       13.4948601349
 Mo        21.2715729733       21.3784699404       13.5017895789
 Mo        24.5510601754       21.1493256247       13.4963844905
 Mo        27.8378571772       20.9256668812       13.4924954741
 Mo        31.1224846652       20.6986818821       13.4939689076
 Mo        34.4021024106       20.4652920766       13.4948086700
 Mo        37.6857279032       20.2409100413       13.5013503603
 Mo        40.9633956199       20.0134060522       13.4959690265
 Mo        44.2502234616       19.7895785737       13.4933662372
 Mo        47.5360424437       19.5606980025       13.4948056605
 Mo        50.8168974647       19.3269587903       13.4945124028
 Mo        12.8692589923       19.1040482277       13.5000979144
 Mo        16.1455555690       18.8772966458       13.4952715096
 Mo        19.4318961436       18.6525517939       13.4947008540
 Mo        22.7183426256       18.4224138953       13.4962472388
 Mo        26.0003755663       18.1893575831       13.4940715845
 Mo        29.2835164727       17.9678298414       13.4982101751
 Mo        32.5592537514       17.7408276525       13.4945173631
 Mo        35.8447573933       17.5147810276       13.4964448456
 Mo        39.1309513173       17.2841922753       13.4979541309
 Mo        42.4137209919       17.0524810539       13.4935374046
 Mo        45.6977689275       16.8317692853       13.4961221320
 Mo        48.9737271395       16.6037276979       13.4939725208
 Mo        11.0273950388       16.3765671855       13.4981882674
 Mo        14.3123871182       16.1463145254       13.4993768672
 Mo        17.5954442457       15.9164156823       13.4929967380
 Mo        20.8810175570       15.6957161017       13.4944749427
 Mo        24.1579407021       15.4658118623       13.4937391617
 Mo        27.4415780668       15.2380556074       13.4993791269
 Mo        30.7246308236       15.0090007497       13.5000773044
 Mo        34.0074469497       14.7809895243       13.4925567535
 Mo        37.2946412783       14.5594059704       13.4937550511
 Mo        40.5730016292       14.3273651055       13.4936909312
 Mo        43.8562384478       14.0995499231       13.4996890001
 Mo        47.1371903036       13.8722881743       13.4999677679
 Mo         9.1886408776       13.6456753254       13.4925084729
 Mo        12.4771226801       13.4225423391       13.4940729880
 Mo        15.7569846348       13.1887243142       13.4937375556
 Mo        19.0402544626       12.9614904499       13.4991743699
 Mo        22.3194965136       12.7360374461       13.4991690584
 Mo        25.6009529842       12.5098192310       13.4929495136
 Mo        28.8901142626       12.2850056318       13.4952593658
 Mo        32.1712621508       12.0501968475       13.4938725656
 Mo        35.4548675988       11.8240708645       13.4980026855
 Mo        38.7330286773       11.5999475713       13.4978335668
 Mo        42.0137189045       11.3732061058       13.4935732000
 Mo        45.3028508505       11.1470358854       13.4970798782
 Mo         7.3541617681       10.9121459382       13.4941409305
 Mo        10.6383381319       10.6874079538       13.4964027419
 Mo        13.9162909477       10.4636853398       13.4962717507
 Mo        17.1963673783       10.2358579322       13.4944575215
 Mo        20.4846554374       10.0088714986       13.4991543131
 Mo        23.7670524269        9.7748020907       13.4944553770
 Mo        27.0523080786        9.5513139455       13.4947096146
 Mo        30.3308309995        9.3269138190       13.4948720418
 Mo        33.6105414759        9.0977123518       13.4954091471
 Mo        36.8973662831        8.8706903998       13.5008656421
 Mo        40.1792119682        8.6383288136       13.4946369789
 Mo        43.4658181560        8.4156877266       13.4933961742
 Mo         5.5148241829        8.1895966862       13.4939888132
 Mo         8.7945945535        7.9590386196       13.4960889669
 Mo        12.0796547707        7.7327234323       13.5017878791
 Mo        15.3602030223        7.5024813260       13.4947011592
 Mo        18.6480353419        7.2801550210       13.4929606094
 Mo        21.9294927506        7.0518370877       13.4937399714
 Mo        25.2097468848        6.8202572425       13.4962580294
 Mo        28.4931701596        6.5951484529       13.5017936877
 Mo        31.7721146968        6.3667533516       13.4946221003
 Mo        35.0606824939        6.1441276718       13.4934297226
 Mo        38.3437316225        5.9137480343       13.4940265544
 Mo        41.6248634004        5.6818524149       13.4959178680
 Mo         3.6762936904        5.4582685656       13.5009515124
 Mo         6.9537741293        5.2308514606       13.4943824412
 Mo        10.2423994898        5.0072525075       13.4946216977
 Mo        13.5266160737        4.7754153853       13.4948525548
 Mo        16.8087391416        4.5440711297       13.4952683740
 Mo        20.0904084523        4.3219912288       13.4993966357
 Mo        23.3668831167        4.0944842587       13.4940710040
 Mo        26.6549675823        3.8695789374       13.4963833200
 Mo        29.9396706303        3.6370609432       13.4960815096
 Mo        33.2227715247        3.4069751054       13.4943942977
 Mo        36.5047131277        3.1859113070       13.4973642485
 Mo        39.7808705088        2.9575890038       13.4938460497
 Mo         1.8370577937        2.7315379771       13.4983700461
 Mo         5.1213540523        2.4991633496       13.4973367944
 Mo         8.4052786914        2.2706650746       13.4934387013
 Mo        11.6882769844        2.0496775685       13.4954288844
 Mo        14.9647973454        1.8198942352       13.4938782033
 Mo        18.2505092715        1.5933070430       13.5000766990
 Mo        21.5334672307        1.3619439684       13.4981858037
 Mo        24.8178534970        1.1350393037       13.4925444692
 Mo        28.1024269067        0.9130836433       13.4941591557
 Mo        31.3799091181        0.6813983454       13.4939833244
 Mo        34.6645682277        0.4548802651       13.5009432999
 Mo        37.9455174610        0.2253926141       13.4983703922
 Se        50.2896700719       35.5574789954       15.1802665375
 Se        53.5655446306       35.3301358803       15.1788481862
 Se        56.8553342780       35.0991805265       15.1846586275
 Se        60.1422196878       34.8638144870       15.1710100470
 Se        22.1979630978       34.6527109481       15.1710262123
 Se        25.4735911010       34.4206502167       15.1804235593
 Se        28.7515295748       34.1918921310       15.1810404401
 Se        32.0389003726       33.9610436009       15.1857457815
 Se        35.3218186592       33.7278483305       15.1695142167
 Se        38.6087422818       33.5166484064       15.1699838178
 Se        41.8885984759       33.2824297946       15.1805186366
 Se        45.1691971161       33.0535495100       15.1815736728
 Se        48.4536758773       32.8241741028       15.1857559419
 Se        51.7317245724       32.5926259572       15.1694112485
 Se        55.0189026644       32.3796077137       15.1708022245
 Se        58.3035273580       32.1431163475       15.1804107679
 Se        20.3561205282       31.9153964908       15.1803405403
 Se        23.6376784032       31.6884754842       15.1846845289
 Se        26.9111676787       31.4578382374       15.1707986272
 Se        30.1984633757       31.2418218079       15.1734637033
 Se        33.4871814158       31.0031990808       15.1801397650
 Se        36.7730302827       30.7776975059       15.1774813713
 Se        40.0522473463       30.5534949809       15.1829340710
 Se        43.3226109436       30.3228005699       15.1733844497
 Se        46.6098409615       30.1033454471       15.1772894426
 Se        49.9007580292       29.8632647982       15.1796117356
 Se        53.1881646437       29.6407342986       15.1734703611
 Se        56.4664373349       29.4187302677       15.1810788620
 Se        18.5051815336       29.1868962092       15.1763386641
 Se        21.7920809753       28.9643879926       15.1811405584
 Se        25.0826120039       28.7239293337       15.1788456352
 Se        28.3703052077       28.5045577361       15.1694183370
 Se        31.6494564271       28.2835572763       15.1796483595
 Se        34.9205039717       28.0498670875       15.1787873605
 Se        38.2068240039       27.8254537786       15.1841383851
 Se        41.4945416465       27.5856958406       15.1780906451
 Se        44.7812250524       27.3688416517       15.1664467141
 Se        48.0628588102       27.1472923592       15.1788154387
 Se        51.3371508643       26.9118899932       15.1801494878
 Se        54.6228261226       26.6871857746       15.1857425653
 Se        16.6753529967       26.4489012290       15.1775227033
 Se        19.9601183388       26.2331282607       15.1653341033
 Se        23.2451583841       26.0095726323       15.1786024836
 Se        26.5236120008       25.7732548211       15.1802394124
 Se        29.8087101348       25.5499047830       15.1857532498
 Se        33.0869680224       25.3134990612       15.1772914912
 Se        36.3694476360       25.0971364375       15.1664331006
 Se        39.6579640806       24.8705425532       15.1790776215
 Se        42.9407370099       24.6341927944       15.1790564557
 Se        46.2253176478       24.4134396348       15.1841640235
 Se        49.4989116708       24.1790083028       15.1774995862
 Se        52.7794330865       23.9607148660       15.1695127480
 Se        14.8397573084       23.7307294193       15.1801662155
 Se        18.1260660391       23.4952164513       15.1766443895
 Se        21.4103692335       23.2776604128       15.1813407495
 Se        24.6808314876       23.0445868091       15.1781318241
 Se        27.9601700095       22.8238591151       15.1738112093
 Se        31.2523118352       22.5907835015       15.1815703141
 Se        34.5404892601       22.3569535454       15.1733703829
 Se        37.8249236011       22.1423646113       15.1781102304
 Se        41.0946555669       21.9093899449       15.1790873507
 Se        44.3738434899       21.6860598091       15.1780853739
 Se        47.6651560761       21.4512123076       15.1828981476
 Se        50.9530647262       21.2197985660       15.1699627685
 Se        13.0072692931       21.0071095782       15.1752980395
 Se        16.2787860403       20.7729414489       15.1799904264
 Se        19.5587909499       20.5477012042       15.1812696602
 Se        22.8476075727       20.3125549478       15.1838206480
 Se        26.1330639991       20.0837255383       15.1673909655
 Se        29.4191697223       19.8713207173       15.1736168730
 Se        32.6944226902       19.6352381005       15.1805161149
 Se        35.9759075740       19.4093955011       15.1828974681
 Se        39.2611771643       19.1752167543       15.1841543255
 Se        42.5426839192       18.9481965608       15.1664379920
 Se        45.8302322451       18.7343599899       15.1733927694
 Se        49.1103383481       18.4964350225       15.1805094568
 Se        11.1628253261       18.2714849360       15.1827471084
 Se        14.4441236911       18.0392085229       15.1837692500
 Se        17.7213333843       17.8130054182       15.1673577408
 Se        21.0102435265       17.5963166292       15.1747554833
 Se        24.2952165573       17.3568344793       15.1799318820
 Se        27.5802750136       17.1340749968       15.1807850098
 Se        30.8579389204       16.9042823676       15.1827691483
 Se        34.1315515504       16.6777354783       15.1699751528
 Se        37.4213994191       16.4574206315       15.1774794011
 Se        40.7100094283       16.2169646337       15.1787781549
 Se        43.9965172658       15.9972935764       15.1772976922
 Se        47.2717994093       15.7697707699       15.1816081735
 Se         9.3127241111       15.5419341009       15.1735940159
 Se        12.6026672308       15.3180507827       15.1807804996
 Se        15.8926605792       15.0775509284       15.1771225336
 Se        19.1800018470       14.8612167515       15.1731843864
 Se        22.4549614365       14.6349092458       15.1807104509
 Se        25.7269935707       14.4050885107       15.1771260580
 Se        29.0161372661       14.1787228063       15.1837450127
 Se        32.3047938932       13.9391598211       15.1752898159
 Se        35.5921001850       13.7255646133       15.1695489218
 Se        38.8689997948       13.4990082701       15.1801768178
 Se        42.1431378292       13.2673002071       15.1796172181
 Se        45.4308976210       13.0400388873       15.1857428940
 Se         7.4852059846       12.8021454344       15.1738102778
 Se        10.7718196582       12.5899056051       15.1674081794
 Se        14.0522920755       12.3617152066       15.1799611259
 Se        17.3296684224       12.1289824930       15.1806776589
 Se        20.6157029791       11.9024032334       15.1864562701
 Se        23.8959527889       11.6663778133       15.1731593977
 Se        27.1816161782       11.4537202363       15.1673458565
 Se        30.4663092123       11.2230255520       15.1799829842
 Se        33.7473112212       10.9903622157       15.1801565765
 Se        37.0315301694       10.7658521365       15.1857582017
 Se        40.3067123516       10.5315861895       15.1734721700
 Se        43.5913686016       10.3169989153       15.1694059743
 Se        46.8800367609       10.0833630040       15.1802435398
 Se         8.9336853327        9.8518059666       15.1781032805
 Se        12.2163092576        9.6301968635       15.1838482662
 Se        15.4873896423        9.3971136051       15.1747563979
 Se        18.7712056579        9.1796616489       15.1731595208
 Se        22.0625238894        8.9433194129       15.1806716848
 Se        25.3495175033        8.7137911288       15.1747435204
 Se        28.6312223288        8.4950604359       15.1813049988
 Se        31.9001912112        8.2620637637       15.1766644620
 Se        35.1835326561        8.0415794755       15.1775166559
 Se        38.4753643829        7.8034962734       15.1810376174
 Se        41.7633363253        7.5767294713       15.1707878799
 Se        45.0452097317        7.3600647395       15.1788803330
 Se         7.0838301496        7.1259541116       15.1785931763
 Se        10.3671087572        6.9029840007       15.1813149844
 Se        13.6571199674        6.6644307880       15.1812717491
 Se        16.9442003136        6.4405413456       15.1673398952
 Se        20.2274728593        6.2245683565       15.1771558909
 Se        23.4996299694        5.9886463567       15.1799519772
 Se        26.7831587597        5.7644174756       15.1838139840
 Se        30.0696026998        5.5265315989       15.1813246984
 Se        33.3542509515        5.3048339940       15.1653324355
 Se        36.6398301238        5.0879364916       15.1763557761
 Se        39.9162265396        4.8503420468       15.1804081939
 Se        43.2002786542        4.6264479870       15.1846572172
 Se         5.2514175453        4.3901347342       15.1811533962
 Se         8.5327688002        4.1693203335       15.1653386752
 Se        11.8209008943        3.9499251428       15.1766685803
 Se        15.1020733329        3.7112312949       15.1799660711
 Se        18.3868324295        3.4892449997       15.1837589610
 Se        21.6641578183        3.2550639221       15.1807910306
 Se        24.9422182405        3.0336259294       15.1674109778
 Se        28.2325649517        2.8107770358       15.1781223708
 Se        31.5181433052        2.5716580395       15.1785712838
 Se        34.8036268091        2.3526911267       15.1811635938
 Se        38.0772529598        2.1206829926       15.1803671863
 Se        41.3529568679        1.8975420002       15.1710087187
 Se         3.4137037913        1.6710949122       15.1803588488
 Se         6.7021318751        1.4323891765       15.1763250821
 Se         9.9882286575        1.2167470486       15.1775349884
 Se        13.2600648596        0.9860951014       15.1801906901
 Se        16.5350434429        0.7609454820       15.1752770632
 Se        19.8263518077        0.5314233612       15.1827456243
 Se        23.1152097822        0.2939504155       15.1735948561
 Se        26.4016973454        0.0812018233       15.1738361428
 Se        50.2902371080       35.5541389802       11.8103245750
 Se        53.5751574559       35.3300220489       11.8119082581
 Se        56.8554229765       35.1025282296       11.8141037862
 Se        60.1377578292       34.8714065002       11.8112622039
 Se        22.1936065749       34.6450328119       11.8112958617
 Se        25.4736251615       34.4177986852       11.8096680384
 Se        28.7588961116       34.1919093061       11.8121286414
 Se        32.0381710220       33.9638052684       11.8145905797
 Se        35.3199276000       33.7345886206       11.8114681387
 Se        38.6064952508       33.5096672495       11.8110473530
 Se        41.8874765617       33.2813041904       11.8094088065
 Se        45.1732477137       33.0534900180       11.8122874219
 Se        48.4517818203       32.8251315769       11.8146232280
 Se        51.7330258757       32.5977651840       11.8113720720
 Se        55.0194671614       32.3740104248       11.8111160470
 Se        58.3010146531       32.1444878649       11.8096512227
 Se        20.3564600154       31.9151127261       11.8122493532
 Se        23.6347294723       31.6868990604       11.8141208145
 Se        26.9156963130       31.4611131977       11.8111208476
 Se        30.2017886364       31.2379714477       11.8116489340
 Se        33.4833829832       31.0073976741       11.8103543926
 Se        36.7700590393       30.7771269221       11.8120046297
 Se        40.0486672659       30.5492734255       11.8132096312
 Se        43.3297020088       30.3244439149       11.8108954926
 Se        46.6150161082       30.1012410411       11.8125543240
 Se        49.8961023995       29.8699981583       11.8111858098
 Se        53.1831614926       29.6397533328       11.8116663689
 Se        56.4627497803       29.4123391608       11.8121288772
 Se        18.5133997177       29.1875771944       11.8107009457
 Se        21.7977252558       28.9636146052       11.8134917510
 Se        25.0779015115       28.7323228869       11.8119027218
 Se        28.3651687453       28.5031050711       11.8113824306
 Se        31.6459331922       28.2761600302       11.8111920989
 Se        34.9280990972       28.0504539271       11.8105202503
 Se        38.2115494419       27.8252109185       11.8141987486
 Se        41.4906393183       27.5944426349       11.8124360746
 Se        44.7777908812       27.3669894314       11.8112606112
 Se        48.0595405321       27.1404044388       11.8105314089
 Se        51.3426683077       26.9130735899       11.8103645357
 Se        54.6255670282       26.6864457214       11.8146017772
 Se        16.6728605948       26.4565976252       11.8126965788
 Se        19.9597230298       26.2310542221       11.8112127066
 Se        23.2421141401       26.0045644836       11.8102245601
 Se        26.5262009138       25.7754353581       11.8103274441
 Se        29.8088296268       25.5478059797       11.8146284547
 Se        33.0861766269       25.3190402846       11.8125508434
 Se        36.3727449658       25.0950737950       11.8112499321
 Se        39.6553131543       24.8683184792       11.8104559797
 Se        42.9401339559       24.6375782000       11.8104692103
 Se        46.2227397110       24.4094768050       11.8142153835
 Se        49.4998881471       24.1818711425       11.8119906339
 Se        52.7862111169       23.9589746278       11.8114680551
 Se        14.8375005988       23.7315755457       11.8112406788
 Se        18.1226756243       23.4997669284       11.8106849940
 Se        21.4056958833       23.2716736921       11.8134109087
 Se        24.6833127021       23.0449780978       11.8112311826
 Se        27.9692347315       22.8224873448       11.8119181962
 Se        31.2503228828       22.5943209211       11.8122667489
 Se        34.5355005406       22.3622711354       11.8108829601
 Se        37.8193048384       22.1346032005       11.8124736626
 Se        41.0978692162       21.9082180892       11.8104654358
 Se        44.3833578262       21.6850655096       11.8124514490
 Se        47.6632686781       21.4564236282       11.8131920783
 Se        50.9481352789       21.2251981876       11.8110284361
 Se        13.0019985475       20.9983464631       11.8116418515
 Se        16.2816329220       20.7715260898       11.8098160544
 Se        19.5669458661       20.5469295676       11.8128894955
 Se        22.8456656266       20.3179990819       11.8138683699
 Se        26.1300256134       20.0886026193       11.8111996276
 Se        29.4151317893       19.8628442099       11.8110790094
 Se        32.6959282470       19.6348400990       11.8094083647
 Se        35.9813561971       19.4084174770       11.8132167388
 Se        39.2590192554       19.1794442405       11.8141964542
 Se        42.5427975404       18.9520655404       11.8112514342
 Se        45.8280927159       18.7273673326       11.8108948272
 Se        49.1099027860       18.4979477615       11.8094066036
 Se        11.1647869707       18.2698722600       11.8133313692
 Se        14.4417294466       18.0411267211       11.8140172523
 Se        17.7250859537       17.8156025236       11.8111545626
 Se        21.0103235704       17.5915455873       11.8111844727
 Se        24.2926812604       17.3607246205       11.8098517687
 Se        27.5786556346       17.1315835157       11.8130903709
 Se        30.8555472110       16.9034052657       11.8133169986
 Se        34.1386859565       16.6792163217       11.8110638701
 Se        37.4233636603       16.4551219687       11.8119907441
 Se        40.7056918065       16.2232604157       11.8105217923
 Se        43.9921041758       15.9938468526       11.8125764068
 Se        47.2697064261       15.7662991867       11.8122767712
 Se         9.3220512153       15.5426670002       11.8110715647
 Se        12.6056282062       15.3178878753       11.8130644439
 Se        15.8874480054       15.0856984168       11.8111683308
 Se        19.1743722121       14.8568591002       11.8119795405
 Se        22.4531911954       14.6297639912       11.8112157066
 Se        25.7366443499       14.4055449389       11.8111604422
 Se        29.0189788794       14.1798371222       11.8140086108
 Se        32.2999058877       13.9481222098       11.8116258099
 Se        35.5871455616       13.7205729509       11.8115008542
 Se        38.8672338863       13.4936280454       11.8103673148
 Se        42.1512827659       13.2679641754       11.8111929818
 Se        45.4326550820       13.0412080101       11.8146153059
 Se         7.4818533290       12.8106884433       11.8119082706
 Se        10.7690855235       12.5848152483       11.8112154463
 Se        14.0501631323       12.3575778024       11.8098583063
 Se        17.3349965573       12.1300444669       11.8112172489
 Se        20.6156976441       11.9024165629       11.8148534208
 Se        23.8949714822       11.6734091167       11.8119456091
 Se        27.1820010493       11.4491253950       11.8111528976
 Se        30.4636334874       11.2212445553       11.8098083538
 Se        33.7491689091       10.9918753078       11.8112541214
 Se        37.0295064965       10.7638652523       11.8146036156
 Se        40.3083546648       10.5363961491       11.8116485879
 Se        43.5951637144       10.3132794553       11.8113665433
 Se        46.8768336764       10.0845192036       11.8103117996
 Se         8.9321038924        9.8537740559       11.8112415926
 Se        12.2125633603        9.6258120482       11.8138957843
 Se        15.4914417726        9.3995796360       11.8111880460
 Se        18.7777703168        9.1769731512       11.8119490792
 Se        22.0589264744        8.9474058202       11.8112020422
 Se        25.3453443195        8.7160734089       11.8111900588
 Se        28.6264691443        8.4883763326       11.8128986019
 Se        31.9058115596        8.2627201020       11.8106844129
 Se        35.1914275802        8.0398733667       11.8127055526
 Se        38.4716563633        7.8098745867       11.8121086480
 Se        41.7582000750        7.5790021391       11.8111156797
 Se        45.0402966695        7.3517807264       11.8119100163
 Se         7.0896582467        7.1258371164       11.8102189661
 Se        10.3746268463        6.9019328999       11.8133937713
 Se        13.6536979546        6.6718905179       11.8128703675
 Se        16.9400346319        6.4424715324       11.8111526396
 Se        20.2230211126        6.2159636322       11.8111700428
 Se        23.5042479064        5.9888853092       11.8098507604
 Se        26.7888314922        5.7633775346       11.8138912424
 Se        30.0667432057        5.5335784589       11.8133788610
 Se        33.3526613931        5.3061807639       11.8112109446
 Se        36.6362816280        5.0804550203       11.8107105037
 Se        39.9186532450        4.8518129152       11.8096598619
 Se        43.2031238218        4.6246971675       11.8141278059
 Se         5.2492494046        4.3954188032       11.8134835127
 Se         8.5347381570        4.1699867739       11.8112036748
 Se        11.8186288358        3.9447013378       11.8106812657
 Se        15.1018542028        3.7144182196       11.8098129482
 Se        18.3863743773        3.4862291842       11.8140285792
 Se        21.6627984840        3.2577228284       11.8130758988
 Se        24.9479607796        3.0337696308       11.8112058291
 Se        28.2316314122        2.8084104340       11.8112185046
 Se        31.5153194956        2.5767760435       11.8102238334