 DBCSR| CPU Multiplication driver                                           XSMM (U)
 DBCSR| Multrec recursion limit                                              512 (U)
 DBCSR| Multiplication stack size                                           1000 (D)
 DBCSR| Maximum elements for images                                    UNLIMITED (U)
 DBCSR| Multiplicative factor virtual images                                   1 (U)
 DBCSR| Use multiplication densification                                       T (D)
 DBCSR| Multiplication size stacks                                             3 (U)
 DBCSR| Use memory pool for CPU allocation                                     F (U)
 DBCSR| Number of 3D layers                                               SINGLE (U)
 DBCSR| Use MPI memory allocation                                              F (U)
 DBCSR| Use RMA algorithm                                                      F (U)
 DBCSR| Use Communication thread                                               T (U)
 DBCSR| Communication thread load                                             60 (D)
 DBCSR| MPI: My process id                                                     0
 DBCSR| MPI: Number of processes                                             560
 DBCSR| OMP: Current number of threads                                         8
 DBCSR| OMP: Max number of threads                                             8
 DBCSR| Split modifier for TAS multiplication algorithm                  1.0E+00 (U)


  **** **** ******  **  PROGRAM STARTED AT               2023-06-17 01:54:12.568
 ***** ** ***  *** **   PROGRAM STARTED ON                              n2cn0167
 **    ****   ******    PROGRAM STARTED BY                              eprop2d1
 ***** **    ** ** **   PROGRAM PROCESS ID                               2237386
  **** **  *******  **  PROGRAM STARTED IN /scratch/hpc-prf-eprop2d/eprop2d1_Jan
                                           /02_MoS2_MoSe2_WS2_WSe2/3_WS2/10x10_w
                                           ith_PBE/14_reg_RI_1e-2_TZVP_gap_stand
                                           ard_RI/2_30_minimax/2_regularization_
                                           1.0E-6

 CP2K| version string:                 CP2K version 2023.1 (Development Version)
 CP2K| source code revision number:                                  git:31c55a3
 CP2K| cp2kflags: omp libint fftw3 libxc elpa parallel scalapack cosma xsmm plum
 CP2K|            ed2 spglib sirius libvori libbqb libvdwxc
 CP2K| is freely available from                            https://www.cp2k.org/
 CP2K| Program compiled at                         Sat Jun 10 15:44:41 CEST 2023
 CP2K| Program compiled on                                              n2login4
 CP2K| Program compiled for                                                local
 CP2K| Data directory path    /opt/software/pc2/EB-SW/software/CP2K/2023.1-foss-
 CP2K| Input file name                                                    GW.inp

 GLOBAL| Force Environment number                                              1
 GLOBAL| Basis set file name                                        BASIS_MOLOPT
 GLOBAL| Potential file name                                      GTH_POTENTIALS
 GLOBAL| MM Potential file name                                     MM_POTENTIAL
 GLOBAL| Coordinate file name                                      __STD_INPUT__
 GLOBAL| Method name                                                        CP2K
 GLOBAL| Project name                                                       MoS2
 GLOBAL| Run type                                                         ENERGY
 GLOBAL| FFT library                                                       FFTW3
 GLOBAL| Diagonalization library                                            ELPA
 GLOBAL| DGEMM library                                                      BLAS
 GLOBAL| Minimum number of eigenvectors for ELPA usage                        16
 GLOBAL| Orthonormality check for eigenvectors                          DISABLED
 GLOBAL| Matrix multiplication library                                     COSMA
 GLOBAL| All-to-all communication in single precision                          F
 GLOBAL| FFTs using library dependent lengths                                  F
 GLOBAL| Grid backend                                                       AUTO
 GLOBAL| Global print level                                               MEDIUM
 GLOBAL| MPI I/O enabled                                                       T
 GLOBAL| Total number of message passing processes                           560
 GLOBAL| Number of threads for this process                                    8
 GLOBAL| This output is from process                                           0
 GLOBAL| Stack size for threads created by OpenMP (OMP_STACKSIZE)        default
 GLOBAL| CPU model name                          AMD EPYC 7763 64-Core Processor
 GLOBAL| CPUID                                                              1002
 GLOBAL| Compiled for CPUID                                                    0

 *** HINT in environment.F:886 :: The compiler target flags (generic) used ***
 *** to build this binary cannot exploit all extensions of this CPU model  ***
 *** (x86_avx2). Consider compiler target flags as part of FCFLAGS and     ***
 *** CFLAGS (ARCH file).                                                   ***


 MEMORY| system memory details [Kb]
 MEMORY|                        rank 0           min           max       average
 MEMORY| MemTotal            263914152     263914144     263914156     263914150
 MEMORY| MemFree             251011036     226815352     255078316     245107114
 MEMORY| Buffers                186980         67416        363716        229022
 MEMORY| Cached                4780832       3348152      18009384       6350765
 MEMORY| Slab                  3977144       1538600      13925128       7485537
 MEMORY| SReclaimable           248052        186696        719492        315415
 MEMORY| MemLikelyFree       256226900     244732976     258696448     252002318


 *** Fundamental physical constants (SI units) ***

 *** Literature: B. J. Mohr and B. N. Taylor,
 ***             CODATA recommended values of the fundamental physical
 ***             constants: 2006, Web Version 5.1
 ***             http://physics.nist.gov/constants

 Speed of light in vacuum [m/s]                             2.99792458000000E+08
 Magnetic constant or permeability of vacuum [N/A**2]       1.25663706143592E-06
 Electric constant or permittivity of vacuum [F/m]          8.85418781762039E-12
 Planck constant (h) [J*s]                                  6.62606896000000E-34
 Planck constant (h-bar) [J*s]                              1.05457162825177E-34
 Elementary charge [C]                                      1.60217648700000E-19
 Electron mass [kg]                                         9.10938215000000E-31
 Electron g factor [ ]                                     -2.00231930436220E+00
 Proton mass [kg]                                           1.67262163700000E-27
 Fine-structure constant                                    7.29735253760000E-03
 Rydberg constant [1/m]                                     1.09737315685270E+07
 Avogadro constant [1/mol]                                  6.02214179000000E+23
 Boltzmann constant [J/K]                                   1.38065040000000E-23
 Atomic mass unit [kg]                                      1.66053878200000E-27
 Bohr radius [m]                                            5.29177208590000E-11

 *** Conversion factors ***

 [u] -> [a.u.]                                              1.82288848426455E+03
 [Angstrom] -> [Bohr] = [a.u.]                              1.88972613288564E+00
 [a.u.] = [Bohr] -> [Angstrom]                              5.29177208590000E-01
 [a.u.] -> [s]                                              2.41888432650478E-17
 [a.u.] -> [fs]                                             2.41888432650478E-02
 [a.u.] -> [J]                                              4.35974393937059E-18
 [a.u.] -> [N]                                              8.23872205491840E-08
 [a.u.] -> [K]                                              3.15774647902944E+05
 [a.u.] -> [kJ/mol]                                         2.62549961709828E+03
 [a.u.] -> [kcal/mol]                                       6.27509468713739E+02
 [a.u.] -> [Pa]                                             2.94210107994716E+13
 [a.u.] -> [bar]                                            2.94210107994716E+08
 [a.u.] -> [atm]                                            2.90362800883016E+08
 [a.u.] -> [eV]                                             2.72113838565563E+01
 [a.u.] -> [Hz]                                             6.57968392072181E+15
 [a.u.] -> [1/cm] (wave numbers)                            2.19474631370540E+05
 [a.u./Bohr**2] -> [1/cm]                                   5.14048714338585E+03
 

 CELL_TOP| Volume [angstrom^3]:                                     13185.261000
 CELL_TOP| Vector a [angstrom    31.860     0.000     0.000   |a| =    31.860000
 CELL_TOP| Vector b [angstrom   -15.930    27.590     0.000   |b| =    31.858641
 CELL_TOP| Vector c [angstrom     0.000     0.000    15.000   |c| =    15.000000
 CELL_TOP| Angle (b,c), alpha [degree]:                                90.000000
 CELL_TOP| Angle (a,c), beta  [degree]:                                90.000000
 CELL_TOP| Angle (a,b), gamma [degree]:                               120.001411
 CELL_TOP| Numerically orthorhombic:                                          NO
 CELL_TOP| Periodicity                                                        XY

 CELL_UC| Volume [angstrom^3]:                                        131.852610
 CELL_UC| Vector a [angstrom]     3.186     0.000     0.000   |a| =     3.186000
 CELL_UC| Vector b [angstrom]    -1.593     2.759     0.000   |b| =     3.185864
 CELL_UC| Vector c [angstrom]     0.000     0.000    15.000   |c| =    15.000000
 CELL_UC| Angle (b,c), alpha [degree]:                                 90.000000
 CELL_UC| Angle (a,c), beta  [degree]:                                 90.000000
 CELL_UC| Angle (a,b), gamma [degree]:                                120.001411
 CELL_UC| Numerically orthorhombic:                                           NO
 CELL_UC| Periodicity                                                         XY

 GENERATE|  Preliminary Number of Bonds generated:                             0
 GENERATE|  Achieved consistency in connectivity generation.

 CELL| Volume [angstrom^3]:                                         13185.261000
 CELL| Vector a [angstrom]:      31.860     0.000     0.000   |a| =    31.860000
 CELL| Vector b [angstrom]:     -15.930    27.590     0.000   |b| =    31.858641
 CELL| Vector c [angstrom]:       0.000     0.000    15.000   |c| =    15.000000
 CELL| Angle (b,c), alpha [degree]:                                    90.000000
 CELL| Angle (a,c), beta  [degree]:                                    90.000000
 CELL| Angle (a,b), gamma [degree]:                                   120.001411
 CELL| Numerically orthorhombic:                                              NO
 CELL| Periodicity                                                            XY

 CELL_REF| Volume [angstrom^3]:                                     13185.261000
 CELL_REF| Vector a [angstrom    31.860     0.000     0.000   |a| =    31.860000
 CELL_REF| Vector b [angstrom   -15.930    27.590     0.000   |b| =    31.858641
 CELL_REF| Vector c [angstrom     0.000     0.000    15.000   |c| =    15.000000
 CELL_REF| Angle (b,c), alpha [degree]:                                90.000000
 CELL_REF| Angle (a,c), beta  [degree]:                                90.000000
 CELL_REF| Angle (a,b), gamma [degree]:                               120.001411
 CELL_REF| Numerically orthorhombic:                                          NO
 CELL_REF| Periodicity                                                        XY

 *******************************************************************************
 *******************************************************************************
 **                                                                           **
 **     #####                         ##              ##                      **
 **    ##   ##            ##          ##              ##                      **
 **   ##     ##                       ##            ######                    **
 **   ##     ##  ##   ##  ##   #####  ##  ##   ####   ##    #####    #####    **
 **   ##     ##  ##   ##  ##  ##      ## ##   ##      ##   ##   ##  ##   ##   **
 **   ##  ## ##  ##   ##  ##  ##      ####     ###    ##   ######   ######    **
 **    ##  ###   ##   ##  ##  ##      ## ##      ##   ##   ##       ##        **
 **     #######   #####   ##   #####  ##  ##  ####    ##    #####   ##        **
 **           ##                                                    ##        **
 **                                                                           **
 **                                                ... make the atoms dance   **
 **                                                                           **
 **            Copyright (C) by CP2K developers group (2000-2023)             **
 **                      J. Chem. Phys. 152, 194103 (2020)                    **
 **                                                                           **
 *******************************************************************************

 DFT| Spin restricted Kohn-Sham (RKS) calculation                            RKS
 DFT| Multiplicity                                                             1
 DFT| Number of spin states                                                    1
 DFT| Charge                                                                   0
 DFT| Self-interaction correction (SIC)                                       NO
 DFT| Cutoffs: density                                              1.000000E-10
 DFT|          gradient                                             1.000000E-10
 DFT|          tau                                                  1.000000E-10
 DFT|          cutoff_smoothing_range                               0.000000E+00
 DFT| XC density smoothing                                                  NONE
 DFT| XC derivatives                                                          PW

 FUNCTIONAL| PADE:
 FUNCTIONAL| S. Goedecker, M. Teter and J. Hutter, Phys. Rev. B 54, 1703 (1996) 


 QS| Method:                                                                 GPW
 QS| Density plane wave grid type                        NON-SPHERICAL FULLSPACE
 QS| Number of grid levels:                                                    4
 QS| Density cutoff [a.u.]:                                                250.0
 QS| Multi grid cutoff [a.u.]: 1) grid level                               250.0
 QS|                           2) grid level                                83.3
 QS|                           3) grid level                                27.8
 QS|                           4) grid level                                 9.3
 QS| Grid level progression factor:                                          3.0
 QS| Relative density cutoff [a.u.]:                                        50.0
 QS| Interaction thresholds: eps_pgf_orb:                                1.0E-40
 QS|                         eps_filter_matrix:                          0.0E+00
 QS|                         eps_core_charge:                            1.0E-42
 QS|                         eps_rho_gspace:                             1.0E-40
 QS|                         eps_rho_rspace:                             1.0E-40
 QS|                         eps_gvg_rspace:                             1.0E-20
 QS|                         eps_ppl:                                    1.0E-02
 QS|                         eps_ppnl:                                   1.0E-22


 ATOMIC KIND INFORMATION

  1. Atomic kind: W                                     Number of atoms:     100

     Orbital Basis Set                                        TZVP-MOLOPT-SR-GTH

       Number of orbital shell sets:                                           1
       Number of orbital shells:                                              11
       Number of primitive Cartesian functions:                                6
       Number of Cartesian basis functions:                                   41
       Number of spherical basis functions:                                   35
       Norm type:                                                              2

       Normalised Cartesian orbitals:

                        Set   Shell   Orbital            Exponent    Coefficient

                          1       1    2s                3.103254       0.430480
                                                         2.893835       0.495799
                                                         1.106151      -0.749253
                                                         0.501100      -0.216095
                                                         0.214447       0.032697
                                                         0.074663      -0.009674

                          1       2    3s                3.103254      -0.838448
                                                         2.893835       0.659302
                                                         1.106151       0.041187
                                                         0.501100      -0.061336
                                                         0.214447       0.079342
                                                         0.074663       0.078749

                          1       3    4s                3.103254       1.710384
                                                         2.893835      -1.029561
                                                         1.106151      -0.302972
                                                         0.501100       0.071480
                                                         0.214447      -0.305493
                                                         0.074663       0.172896

                          1       4    5s                3.103254       1.231280
                                                         2.893835      -1.395772
                                                         1.106151       0.316405
                                                         0.501100      -0.291407
                                                         0.214447       0.253777
                                                         0.074663       0.028869

                          1       5    3px               3.103254       6.595006
                                                         2.893835      -5.436829
                                                         1.106151      -0.973670
                                                         0.501100      -0.261913
                                                         0.214447      -0.013952
                                                         0.074663       0.001100
                          1       5    3py               3.103254       6.595006
                                                         2.893835      -5.436829
                                                         1.106151      -0.973670
                                                         0.501100      -0.261913
                                                         0.214447      -0.013952
                                                         0.074663       0.001100
                          1       5    3pz               3.103254       6.595006
                                                         2.893835      -5.436829
                                                         1.106151      -0.973670
                                                         0.501100      -0.261913
                                                         0.214447      -0.013952
                                                         0.074663       0.001100

                          1       6    4px               3.103254      -0.229699
                                                         2.893835       0.340023
                                                         1.106151      -0.266568
                                                         0.501100      -0.017427
                                                         0.214447       0.062174
                                                         0.074663       0.044896
                          1       6    4py               3.103254      -0.229699
                                                         2.893835       0.340023
                                                         1.106151      -0.266568
                                                         0.501100      -0.017427
                                                         0.214447       0.062174
                                                         0.074663       0.044896
                          1       6    4pz               3.103254      -0.229699
                                                         2.893835       0.340023
                                                         1.106151      -0.266568
                                                         0.501100      -0.017427
                                                         0.214447       0.062174
                                                         0.074663       0.044896

                          1       7    5px               3.103254       1.468072
                                                         2.893835      -1.128056
                                                         1.106151       1.371755
                                                         0.501100       0.145890
                                                         0.214447      -0.334609
                                                         0.074663       0.044858
                          1       7    5py               3.103254       1.468072
                                                         2.893835      -1.128056
                                                         1.106151       1.371755
                                                         0.501100       0.145890
                                                         0.214447      -0.334609
                                                         0.074663       0.044858
                          1       7    5pz               3.103254       1.468072
                                                         2.893835      -1.128056
                                                         1.106151       1.371755
                                                         0.501100       0.145890
                                                         0.214447      -0.334609
                                                         0.074663       0.044858

                          1       8    4dx2              3.103254      -0.073430
                                                         2.893835       0.214195
                                                         1.106151       0.645387
                                                         0.501100       0.199794
                                                         0.214447       0.032379
                                                         0.074663       0.003876
                          1       8    4dxy              3.103254      -0.127184
                                                         2.893835       0.370997
                                                         1.106151       1.117844
                                                         0.501100       0.346053
                                                         0.214447       0.056082
                                                         0.074663       0.006714
                          1       8    4dxz              3.103254      -0.127184
                                                         2.893835       0.370997
                                                         1.106151       1.117844
                                                         0.501100       0.346053
                                                         0.214447       0.056082
                                                         0.074663       0.006714
                          1       8    4dy2              3.103254      -0.073430
                                                         2.893835       0.214195
                                                         1.106151       0.645387
                                                         0.501100       0.199794
                                                         0.214447       0.032379
                                                         0.074663       0.003876
                          1       8    4dyz              3.103254      -0.127184
                                                         2.893835       0.370997
                                                         1.106151       1.117844
                                                         0.501100       0.346053
                                                         0.214447       0.056082
                                                         0.074663       0.006714
                          1       8    4dz2              3.103254      -0.073430
                                                         2.893835       0.214195
                                                         1.106151       0.645387
                                                         0.501100       0.199794
                                                         0.214447       0.032379
                                                         0.074663       0.003876

                          1       9    5dx2              3.103254       0.131236
                                                         2.893835      -0.269688
                                                         1.106151      -0.639375
                                                         0.501100      -0.218460
                                                         0.214447       0.054987
                                                         0.074663       0.011491
                          1       9    5dxy              3.103254       0.227308
                                                         2.893835      -0.467113
                                                         1.106151      -1.107431
                                                         0.501100      -0.378383
                                                         0.214447       0.095240
                                                         0.074663       0.019903
                          1       9    5dxz              3.103254       0.227308
                                                         2.893835      -0.467113
                                                         1.106151      -1.107431
                                                         0.501100      -0.378383
                                                         0.214447       0.095240
                                                         0.074663       0.019903
                          1       9    5dy2              3.103254       0.131236
                                                         2.893835      -0.269688
                                                         1.106151      -0.639375
                                                         0.501100      -0.218460
                                                         0.214447       0.054987
                                                         0.074663       0.011491
                          1       9    5dyz              3.103254       0.227308
                                                         2.893835      -0.467113
                                                         1.106151      -1.107431
                                                         0.501100      -0.378383
                                                         0.214447       0.095240
                                                         0.074663       0.019903
                          1       9    5dz2              3.103254       0.131236
                                                         2.893835      -0.269688
                                                         1.106151      -0.639375
                                                         0.501100      -0.218460
                                                         0.214447       0.054987
                                                         0.074663       0.011491

                          1      10    6dx2              3.103254      11.532441
                                                         2.893835     -11.449410
                                                         1.106151       0.939358
                                                         0.501100      -0.005417
                                                         0.214447      -0.145639
                                                         0.074663       0.020374
                          1      10    6dxy              3.103254      19.974774
                                                         2.893835     -19.830960
                                                         1.106151       1.627016
                                                         0.501100      -0.009382
                                                         0.214447      -0.252255
                                                         0.074663       0.035289
                          1      10    6dxz              3.103254      19.974774
                                                         2.893835     -19.830960
                                                         1.106151       1.627016
                                                         0.501100      -0.009382
                                                         0.214447      -0.252255
                                                         0.074663       0.035289
                          1      10    6dy2              3.103254      11.532441
                                                         2.893835     -11.449410
                                                         1.106151       0.939358
                                                         0.501100      -0.005417
                                                         0.214447      -0.145639
                                                         0.074663       0.020374
                          1      10    6dyz              3.103254      19.974774
                                                         2.893835     -19.830960
                                                         1.106151       1.627016
                                                         0.501100      -0.009382
                                                         0.214447      -0.252255
                                                         0.074663       0.035289
                          1      10    6dz2              3.103254      11.532441
                                                         2.893835     -11.449410
                                                         1.106151       0.939358
                                                         0.501100      -0.005417
                                                         0.214447      -0.145639
                                                         0.074663       0.020374

                          1      11    5fx3              3.103254      -2.194270
                                                         2.893835       2.425274
                                                         1.106151      -0.369945
                                                         0.501100      -0.176940
                                                         0.214447      -0.017061
                                                         0.074663      -0.000241
                          1      11    5fx2y             3.103254      -4.906538
                                                         2.893835       5.423078
                                                         1.106151      -0.827223
                                                         0.501100      -0.395650
                                                         0.214447      -0.038149
                                                         0.074663      -0.000540
                          1      11    5fx2z             3.103254      -4.906538
                                                         2.893835       5.423078
                                                         1.106151      -0.827223
                                                         0.501100      -0.395650
                                                         0.214447      -0.038149
                                                         0.074663      -0.000540
                          1      11    5fxy2             3.103254      -4.906538
                                                         2.893835       5.423078
                                                         1.106151      -0.827223
                                                         0.501100      -0.395650
                                                         0.214447      -0.038149
                                                         0.074663      -0.000540
                          1      11    5fxyz             3.103254      -8.498372
                                                         2.893835       9.393047
                                                         1.106151      -1.432792
                                                         0.501100      -0.685285
                                                         0.214447      -0.066076
                                                         0.074663      -0.000935
                          1      11    5fxz2             3.103254      -4.906538
                                                         2.893835       5.423078
                                                         1.106151      -0.827223
                                                         0.501100      -0.395650
                                                         0.214447      -0.038149
                                                         0.074663      -0.000540
                          1      11    5fy3              3.103254      -2.194270
                                                         2.893835       2.425274
                                                         1.106151      -0.369945
                                                         0.501100      -0.176940
                                                         0.214447      -0.017061
                                                         0.074663      -0.000241
                          1      11    5fy2z             3.103254      -4.906538
                                                         2.893835       5.423078
                                                         1.106151      -0.827223
                                                         0.501100      -0.395650
                                                         0.214447      -0.038149
                                                         0.074663      -0.000540
                          1      11    5fyz2             3.103254      -4.906538
                                                         2.893835       5.423078
                                                         1.106151      -0.827223
                                                         0.501100      -0.395650
                                                         0.214447      -0.038149
                                                         0.074663      -0.000540
                          1      11    5fz3              3.103254      -2.194270
                                                         2.893835       2.425274
                                                         1.106151      -0.369945
                                                         0.501100      -0.176940
                                                         0.214447      -0.017061
                                                         0.074663      -0.000241

     RI Auxiliary Basis Set                                 def2-SVP-RIFIT-mod-3

       Number of orbital shell sets:                                          16
       Number of orbital shells:                                              16
       Number of primitive Cartesian functions:                               16
       Number of Cartesian basis functions:                                   88
       Number of spherical basis functions:                                   66
       Norm type:                                                              2

       Normalised Cartesian orbitals:

                        Set   Shell   Orbital            Exponent    Coefficient

                          1       1    1s                0.238675       0.243369

                          2       1    1fx3              0.253216       0.066959
                          2       1    1fx2y             0.253216       0.149725
                          2       1    1fx2z             0.253216       0.149725
                          2       1    1fxy2             0.253216       0.149725
                          2       1    1fxyz             0.253216       0.259331
                          2       1    1fxz2             0.253216       0.149725
                          2       1    1fy3              0.253216       0.066959
                          2       1    1fy2z             0.253216       0.149725
                          2       1    1fyz2             0.253216       0.149725
                          2       1    1fz3              0.253216       0.066959

                          3       1    1px               0.269126       0.276302
                          3       1    1py               0.269126       0.276302
                          3       1    1pz               0.269126       0.276302

                          4       1    1dx2              0.304026       0.204882
                          4       1    1dxy              0.304026       0.354866
                          4       1    1dxz              0.304026       0.354866
                          4       1    1dy2              0.304026       0.204882
                          4       1    1dyz              0.304026       0.354866
                          4       1    1dz2              0.304026       0.204882

                          5       1    1gx4              0.365033       0.069638
                          5       1    1gx3y             0.365033       0.184246
                          5       1    1gx3z             0.365033       0.184246
                          5       1    1gx2y2            0.365033       0.237860
                          5       1    1gx2yz            0.365033       0.411986
                          5       1    1gx2z2            0.365033       0.237860
                          5       1    1gxy3             0.365033       0.184246
                          5       1    1gxy2z            0.365033       0.411986
                          5       1    1gxyz2            0.365033       0.411986
                          5       1    1gxz3             0.365033       0.184246
                          5       1    1gy4              0.365033       0.069638
                          5       1    1gy3z             0.365033       0.184246
                          5       1    1gy2z2            0.365033       0.237860
                          5       1    1gyz3             0.365033       0.184246
                          5       1    1gz4              0.365033       0.069638

                          6       1    1s                0.424638       0.374908

                          7       1    1s                0.648984       0.515330

                          8       1    1dx2              0.719090       0.924230
                          8       1    1dxy              0.719090       1.600814
                          8       1    1dxz              0.719090       1.600814
                          8       1    1dy2              0.719090       0.924230
                          8       1    1dyz              0.719090       1.600814
                          8       1    1dz2              0.719090       0.924230

                          9       1    1gx4              0.914481       0.870294
                          9       1    1gx3y             0.914481       2.302581
                          9       1    1gx3z             0.914481       2.302581
                          9       1    1gx2y2            0.914481       2.972619
                          9       1    1gx2yz            0.914481       5.148727
                          9       1    1gx2z2            0.914481       2.972619
                          9       1    1gxy3             0.914481       2.302581
                          9       1    1gxy2z            0.914481       5.148727
                          9       1    1gxyz2            0.914481       5.148727
                          9       1    1gxz3             0.914481       2.302581
                          9       1    1gy4              0.914481       0.870294
                          9       1    1gy3z             0.914481       2.302581
                          9       1    1gy2z2            0.914481       2.972619
                          9       1    1gyz3             0.914481       2.302581
                          9       1    1gz4              0.914481       0.870294

                         10       1    1px               0.967490       1.367723
                         10       1    1py               0.967490       1.367723
                         10       1    1pz               0.967490       1.367723

                         11       1    1dx2              1.179750       2.198072
                         11       1    1dxy              1.179750       3.807173
                         11       1    1dxz              1.179750       3.807173
                         11       1    1dy2              1.179750       2.198072
                         11       1    1dyz              1.179750       3.807173
                         11       1    1dz2              1.179750       2.198072

                         12       1    1fx3              1.281070       2.570357
                         12       1    1fx2y             1.281070       5.747492
                         12       1    1fx2z             1.281070       5.747492
                         12       1    1fxy2             1.281070       5.747492
                         12       1    1fxyz             1.281070       9.954948
                         12       1    1fxz2             1.281070       5.747492
                         12       1    1fy3              1.281070       2.570357
                         12       1    1fy2z             1.281070       5.747492
                         12       1    1fyz2             1.281070       5.747492
                         12       1    1fz3              1.281070       2.570357

                         13       1    1s                1.466370       0.949714

                         14       1    1px               1.939290       3.262072
                         14       1    1py               1.939290       3.262072
                         14       1    1pz               1.939290       3.262072

                         15       1    1s                2.101910       1.244144

                         16       1    1dx2              2.484170       8.090526
                         16       1    1dxy              2.484170      14.013202
                         16       1    1dxz              2.484170      14.013202
                         16       1    1dy2              2.484170       8.090526
                         16       1    1dyz              2.484170      14.013202
                         16       1    1dz2              2.484170       8.090526

       Atomic covalent radius [Angstrom]:                                  1.300

       Atomic van der Waals radius [Angstrom]:                             1.670

     GTH Potential information for                                  GTH-PADE-q14

       Description:                       Goedecker-Teter-Hutter pseudopotential
                                           Goedecker et al., PRB 54, 1703 (1996)
                                          Hartwigsen et al., PRB 58, 3641 (1998)
                                                      Krack, TCA 114, 145 (2005)

       Gaussian exponent of the core charge distribution:               1.714678
       Electronic configuration (s p d ...):                           4   6   4

       Parameters of the local part of the GTH pseudopotential:

                          rloc        C1          C2          C3          C4
                        0.540000    4.800251    0.901544

       Parameters of the non-local part of the GTH pseudopotential:

                   l      r(l)      h(i,j,l)

                   0    0.418570    2.692204    2.332557    0.297239
                                    2.332557   -6.022638   -0.767467
                                    0.297239   -0.767467    1.218316
                   1    0.449555   -0.702084    1.036024
                                    1.036024   -2.451680
                   2    0.399602    1.177436    2.448917
                                    2.448917   -5.553621

  2. Atomic kind: S                                     Number of atoms:     200

     Orbital Basis Set                                           TZVP-MOLOPT-GTH

       Number of orbital shell sets:                                           1
       Number of orbital shells:                                               7
       Number of primitive Cartesian functions:                                6
       Number of Cartesian basis functions:                                   18
       Number of spherical basis functions:                                   17
       Norm type:                                                              2

       Normalised Cartesian orbitals:

                        Set   Shell   Orbital            Exponent    Coefficient

                          1       1    2s                3.817591       0.157264
                                                         2.362752      -0.510082
                                                         0.861004      -0.067545
                                                         0.417525       0.341507
                                                         0.181514       0.065073
                                                         0.070571       0.000166

                          1       2    3s                3.817591      -0.204385
                                                         2.362752       0.558740
                                                         0.861004       0.301625
                                                         0.417525      -0.627222
                                                         0.181514       0.190853
                                                         0.070571       0.080605

                          1       3    4s                3.817591      -1.028748
                                                         2.362752       1.936036
                                                         0.861004       0.140522
                                                         0.417525      -0.138514
                                                         0.181514       0.081374
                                                         0.070571      -0.058475

                          1       4    3px               3.817591      -0.172386
                                                         2.362752      -0.175607
                                                         0.861004       0.224215
                                                         0.417525       0.286358
                                                         0.181514       0.049699
                                                         0.070571       0.001588
                          1       4    3py               3.817591      -0.172386
                                                         2.362752      -0.175607
                                                         0.861004       0.224215
                                                         0.417525       0.286358
                                                         0.181514       0.049699
                                                         0.070571       0.001588
                          1       4    3pz               3.817591      -0.172386
                                                         2.362752      -0.175607
                                                         0.861004       0.224215
                                                         0.417525       0.286358
                                                         0.181514       0.049699
                                                         0.070571       0.001588

                          1       5    4px               3.817591       0.011373
                                                         2.362752       0.235342
                                                         0.861004      -0.175793
                                                         0.417525      -0.223923
                                                         0.181514       0.115877
                                                         0.070571       0.033489
                          1       5    4py               3.817591       0.011373
                                                         2.362752       0.235342
                                                         0.861004      -0.175793
                                                         0.417525      -0.223923
                                                         0.181514       0.115877
                                                         0.070571       0.033489
                          1       5    4pz               3.817591       0.011373
                                                         2.362752       0.235342
                                                         0.861004      -0.175793
                                                         0.417525      -0.223923
                                                         0.181514       0.115877
                                                         0.070571       0.033489

                          1       6    5px               3.817591      -0.999910
                                                         2.362752       1.827963
                                                         0.861004      -1.566915
                                                         0.417525       0.819066
                                                         0.181514       0.069667
                                                         0.070571      -0.035715
                          1       6    5py               3.817591      -0.999910
                                                         2.362752       1.827963
                                                         0.861004      -1.566915
                                                         0.417525       0.819066
                                                         0.181514       0.069667
                                                         0.070571      -0.035715
                          1       6    5pz               3.817591      -0.999910
                                                         2.362752       1.827963
                                                         0.861004      -1.566915
                                                         0.417525       0.819066
                                                         0.181514       0.069667
                                                         0.070571      -0.035715

                          1       7    4dx2              3.817591       0.133631
                                                         2.362752       0.806297
                                                         0.861004       0.453606
                                                         0.417525       0.175089
                                                         0.181514       0.017666
                                                         0.070571      -0.000330
                          1       7    4dxy              3.817591       0.231456
                                                         2.362752       1.396548
                                                         0.861004       0.785669
                                                         0.417525       0.303263
                                                         0.181514       0.030598
                                                         0.070571      -0.000571
                          1       7    4dxz              3.817591       0.231456
                                                         2.362752       1.396548
                                                         0.861004       0.785669
                                                         0.417525       0.303263
                                                         0.181514       0.030598
                                                         0.070571      -0.000571
                          1       7    4dy2              3.817591       0.133631
                                                         2.362752       0.806297
                                                         0.861004       0.453606
                                                         0.417525       0.175089
                                                         0.181514       0.017666
                                                         0.070571      -0.000330
                          1       7    4dyz              3.817591       0.231456
                                                         2.362752       1.396548
                                                         0.861004       0.785669
                                                         0.417525       0.303263
                                                         0.181514       0.030598
                                                         0.070571      -0.000571
                          1       7    4dz2              3.817591       0.133631
                                                         2.362752       0.806297
                                                         0.861004       0.453606
                                                         0.417525       0.175089
                                                         0.181514       0.017666
                                                         0.070571      -0.000330

     RI Auxiliary Basis Set                                 def2-SVP-RIFIT-mod-1

       Number of orbital shell sets:                                          13
       Number of orbital shells:                                              13
       Number of primitive Cartesian functions:                               13
       Number of Cartesian basis functions:                                   54
       Number of spherical basis functions:                                   45
       Norm type:                                                              2

       Normalised Cartesian orbitals:

                        Set   Shell   Orbital            Exponent    Coefficient

                          1       1    1s                0.197811       0.211396

                          2       1    1dx2              0.242242       0.137672
                          2       1    1dxy              0.242242       0.238455
                          2       1    1dxz              0.242242       0.238455
                          2       1    1dy2              0.242242       0.137672
                          2       1    1dyz              0.242242       0.238455
                          2       1    1dz2              0.242242       0.137672

                          3       1    1px               0.324549       0.349172
                          3       1    1py               0.324549       0.349172
                          3       1    1pz               0.324549       0.349172

                          4       1    1s                0.389135       0.351144

                          5       1    1fx3              0.529340       0.351850
                          5       1    1fx2y             0.529340       0.786760
                          5       1    1fx2z             0.529340       0.786760
                          5       1    1fxy2             0.529340       0.786760
                          5       1    1fxyz             0.529340       1.362708
                          5       1    1fxz2             0.529340       0.786760
                          5       1    1fy3              0.529340       0.351850
                          5       1    1fy2z             0.529340       0.786760
                          5       1    1fyz2             0.529340       0.786760
                          5       1    1fz3              0.529340       0.351850

                          6       1    1dx2              0.603367       0.679871
                          6       1    1dxy              0.603367       1.177572
                          6       1    1dxz              0.603367       1.177572
                          6       1    1dy2              0.603367       0.679871
                          6       1    1dyz              0.603367       1.177572
                          6       1    1dz2              0.603367       0.679871

                          7       1    1px               0.631252       0.802035
                          7       1    1py               0.631252       0.802035
                          7       1    1pz               0.631252       0.802035

                          8       1    1s                0.936032       0.678232

                          9       1    1dx2              1.115385       1.992520
                          9       1    1dxy              1.115385       3.451146
                          9       1    1dxz              1.115385       3.451146
                          9       1    1dy2              1.115385       1.992520
                          9       1    1dyz              1.115385       3.451146
                          9       1    1dz2              1.115385       1.992520

                         10       1    1fx3              1.132321       1.947088
                         10       1    1fx2y             1.132321       4.353822
                         10       1    1fx2z             1.132321       4.353822
                         10       1    1fxy2             1.132321       4.353822
                         10       1    1fxyz             1.132321       7.541040
                         10       1    1fxz2             1.132321       4.353822
                         10       1    1fy3              1.132321       1.947088
                         10       1    1fy2z             1.132321       4.353822
                         10       1    1fyz2             1.132321       4.353822
                         10       1    1fz3              1.132321       1.947088

                         11       1    1px               1.173306       1.740620
                         11       1    1py               1.173306       1.740620
                         11       1    1pz               1.173306       1.740620

                         12       1    1s                2.064006       1.227279

                         13       1    1px               2.625789       4.764474
                         13       1    1py               2.625789       4.764474
                         13       1    1pz               2.625789       4.764474

       Atomic covalent radius [Angstrom]:                                  1.020

       Atomic van der Waals radius [Angstrom]:                             1.800

     GTH Potential information for                                   GTH-PADE-q6

       Description:                       Goedecker-Teter-Hutter pseudopotential
                                           Goedecker et al., PRB 54, 1703 (1996)
                                          Hartwigsen et al., PRB 58, 3641 (1998)
                                                      Krack, TCA 114, 145 (2005)

       Gaussian exponent of the core charge distribution:               2.834467
       Electronic configuration (s p d ...):                               2   4

       Parameters of the local part of the GTH pseudopotential:

                          rloc        C1          C2          C3          C4
                        0.420000   -6.554492

       Parameters of the non-local part of the GTH pseudopotential:

                   l      r(l)      h(i,j,l)

                   0    0.361757    7.905303   -1.731881
                                   -1.731881    4.471698
                   1    0.405285    3.866579


 MOLECULE KIND INFORMATION


 All atoms are their own molecule, skipping detailed information


 TOTAL NUMBERS AND MAXIMUM NUMBERS

  Total number of            - Atomic kinds:                                   2
                             - Atoms:                                        300
                             - Shell sets:                                   300
                             - Shells:                                      2500
                             - Primitive Cartesian functions:               1800
                             - Cartesian basis functions:                   7700
                             - Spherical basis functions:                   6900

  Maximum angular momentum of- Orbital basis functions:                        3
                             - Local part of the GTH pseudopotential:          2
                             - Non-local part of the GTH pseudopotential:      4


 MODULE QUICKSTEP: ATOMIC COORDINATES IN ANGSTROM

   Atom Kind Element         X             Y             Z       Z(eff)     Mass
      1    1 W    74      0.000000      0.000000      7.072797  14.0000 183.8400
      2    2 S    16      1.592973      0.919703      8.645595   6.0000  32.0650
      3    2 S    16      1.592973      0.919703      5.500000   6.0000  32.0650
      4    1 W    74      3.186000      0.000000      7.072797  14.0000 183.8400
      5    2 S    16      4.778973      0.919703      8.645595   6.0000  32.0650
      6    2 S    16      4.778973      0.919703      5.500000   6.0000  32.0650
      7    1 W    74      6.372000      0.000000      7.072797  14.0000 183.8400
      8    2 S    16      7.964973      0.919703      8.645595   6.0000  32.0650
      9    2 S    16      7.964973      0.919703      5.500000   6.0000  32.0650
     10    1 W    74      9.558000      0.000000      7.072797  14.0000 183.8400
     11    2 S    16     11.150973      0.919703      8.645595   6.0000  32.0650
     12    2 S    16     11.150973      0.919703      5.500000   6.0000  32.0650
     13    1 W    74     12.744000      0.000000      7.072797  14.0000 183.8400
     14    2 S    16     14.336973      0.919703      8.645595   6.0000  32.0650
     15    2 S    16     14.336973      0.919703      5.500000   6.0000  32.0650
     16    1 W    74     15.930000      0.000000      7.072797  14.0000 183.8400
     17    2 S    16     17.522973      0.919703      8.645595   6.0000  32.0650
     18    2 S    16     17.522973      0.919703      5.500000   6.0000  32.0650
     19    1 W    74     19.116000      0.000000      7.072797  14.0000 183.8400
     20    2 S    16     20.708973      0.919703      8.645595   6.0000  32.0650
     21    2 S    16     20.708973      0.919703      5.500000   6.0000  32.0650
     22    1 W    74     22.302000      0.000000      7.072797  14.0000 183.8400
     23    2 S    16     23.894973      0.919703      8.645595   6.0000  32.0650
     24    2 S    16     23.894973      0.919703      5.500000   6.0000  32.0650
     25    1 W    74     25.488000      0.000000      7.072797  14.0000 183.8400
     26    2 S    16     27.080973      0.919703      8.645595   6.0000  32.0650
     27    2 S    16     27.080973      0.919703      5.500000   6.0000  32.0650
     28    1 W    74     28.674000      0.000000      7.072797  14.0000 183.8400
     29    2 S    16     30.266973      0.919703      8.645595   6.0000  32.0650
     30    2 S    16     30.266973      0.919703      5.500000   6.0000  32.0650
     31    1 W    74     -1.593000      2.759000      7.072797  14.0000 183.8400
     32    2 S    16     -0.000027      3.678703      8.645595   6.0000  32.0650
     33    2 S    16     -0.000027      3.678703      5.500000   6.0000  32.0650
     34    1 W    74      1.593000      2.759000      7.072797  14.0000 183.8400
     35    2 S    16      3.185973      3.678703      8.645595   6.0000  32.0650
     36    2 S    16      3.185973      3.678703      5.500000   6.0000  32.0650
     37    1 W    74      4.779000      2.759000      7.072797  14.0000 183.8400
     38    2 S    16      6.371973      3.678703      8.645595   6.0000  32.0650
     39    2 S    16      6.371973      3.678703      5.500000   6.0000  32.0650
     40    1 W    74      7.965000      2.759000      7.072797  14.0000 183.8400
     41    2 S    16      9.557973      3.678703      8.645595   6.0000  32.0650
     42    2 S    16      9.557973      3.678703      5.500000   6.0000  32.0650
     43    1 W    74     11.151000      2.759000      7.072797  14.0000 183.8400
     44    2 S    16     12.743973      3.678703      8.645595   6.0000  32.0650
     45    2 S    16     12.743973      3.678703      5.500000   6.0000  32.0650
     46    1 W    74     14.337000      2.759000      7.072797  14.0000 183.8400
     47    2 S    16     15.929973      3.678703      8.645595   6.0000  32.0650
     48    2 S    16     15.929973      3.678703      5.500000   6.0000  32.0650
     49    1 W    74     17.523000      2.759000      7.072797  14.0000 183.8400
     50    2 S    16     19.115973      3.678703      8.645595   6.0000  32.0650
     51    2 S    16     19.115973      3.678703      5.500000   6.0000  32.0650
     52    1 W    74     20.709000      2.759000      7.072797  14.0000 183.8400
     53    2 S    16     22.301973      3.678703      8.645595   6.0000  32.0650
     54    2 S    16     22.301973      3.678703      5.500000   6.0000  32.0650
     55    1 W    74     23.895000      2.759000      7.072797  14.0000 183.8400
     56    2 S    16     25.487973      3.678703      8.645595   6.0000  32.0650
     57    2 S    16     25.487973      3.678703      5.500000   6.0000  32.0650
     58    1 W    74     27.081000      2.759000      7.072797  14.0000 183.8400
     59    2 S    16     28.673973      3.678703      8.645595   6.0000  32.0650
     60    2 S    16     28.673973      3.678703      5.500000   6.0000  32.0650
     61    1 W    74     -3.186000      5.518000      7.072797  14.0000 183.8400
     62    2 S    16     -1.593027      6.437703      8.645595   6.0000  32.0650
     63    2 S    16     -1.593027      6.437703      5.500000   6.0000  32.0650
     64    1 W    74      0.000000      5.518000      7.072797  14.0000 183.8400
     65    2 S    16      1.592973      6.437703      8.645595   6.0000  32.0650
     66    2 S    16      1.592973      6.437703      5.500000   6.0000  32.0650
     67    1 W    74      3.186000      5.518000      7.072797  14.0000 183.8400
     68    2 S    16      4.778973      6.437703      8.645595   6.0000  32.0650
     69    2 S    16      4.778973      6.437703      5.500000   6.0000  32.0650
     70    1 W    74      6.372000      5.518000      7.072797  14.0000 183.8400
     71    2 S    16      7.964973      6.437703      8.645595   6.0000  32.0650
     72    2 S    16      7.964973      6.437703      5.500000   6.0000  32.0650
     73    1 W    74      9.558000      5.518000      7.072797  14.0000 183.8400
     74    2 S    16     11.150973      6.437703      8.645595   6.0000  32.0650
     75    2 S    16     11.150973      6.437703      5.500000   6.0000  32.0650
     76    1 W    74     12.744000      5.518000      7.072797  14.0000 183.8400
     77    2 S    16     14.336973      6.437703      8.645595   6.0000  32.0650
     78    2 S    16     14.336973      6.437703      5.500000   6.0000  32.0650
     79    1 W    74     15.930000      5.518000      7.072797  14.0000 183.8400
     80    2 S    16     17.522973      6.437703      8.645595   6.0000  32.0650
     81    2 S    16     17.522973      6.437703      5.500000   6.0000  32.0650
     82    1 W    74     19.116000      5.518000      7.072797  14.0000 183.8400
     83    2 S    16     20.708973      6.437703      8.645595   6.0000  32.0650
     84    2 S    16     20.708973      6.437703      5.500000   6.0000  32.0650
     85    1 W    74     22.302000      5.518000      7.072797  14.0000 183.8400
     86    2 S    16     23.894973      6.437703      8.645595   6.0000  32.0650
     87    2 S    16     23.894973      6.437703      5.500000   6.0000  32.0650
     88    1 W    74     25.488000      5.518000      7.072797  14.0000 183.8400
     89    2 S    16     27.080973      6.437703      8.645595   6.0000  32.0650
     90    2 S    16     27.080973      6.437703      5.500000   6.0000  32.0650
     91    1 W    74     -4.779000      8.277000      7.072797  14.0000 183.8400
     92    2 S    16     -3.186027      9.196703      8.645595   6.0000  32.0650
     93    2 S    16     -3.186027      9.196703      5.500000   6.0000  32.0650
     94    1 W    74     -1.593000      8.277000      7.072797  14.0000 183.8400
     95    2 S    16     -0.000027      9.196703      8.645595   6.0000  32.0650
     96    2 S    16     -0.000027      9.196703      5.500000   6.0000  32.0650
     97    1 W    74      1.593000      8.277000      7.072797  14.0000 183.8400
     98    2 S    16      3.185973      9.196703      8.645595   6.0000  32.0650
     99    2 S    16      3.185973      9.196703      5.500000   6.0000  32.0650
    100    1 W    74      4.779000      8.277000      7.072797  14.0000 183.8400
    101    2 S    16      6.371973      9.196703      8.645595   6.0000  32.0650
    102    2 S    16      6.371973      9.196703      5.500000   6.0000  32.0650
    103    1 W    74      7.965000      8.277000      7.072797  14.0000 183.8400
    104    2 S    16      9.557973      9.196703      8.645595   6.0000  32.0650
    105    2 S    16      9.557973      9.196703      5.500000   6.0000  32.0650
    106    1 W    74     11.151000      8.277000      7.072797  14.0000 183.8400
    107    2 S    16     12.743973      9.196703      8.645595   6.0000  32.0650
    108    2 S    16     12.743973      9.196703      5.500000   6.0000  32.0650
    109    1 W    74     14.337000      8.277000      7.072797  14.0000 183.8400
    110    2 S    16     15.929973      9.196703      8.645595   6.0000  32.0650
    111    2 S    16     15.929973      9.196703      5.500000   6.0000  32.0650
    112    1 W    74     17.523000      8.277000      7.072797  14.0000 183.8400
    113    2 S    16     19.115973      9.196703      8.645595   6.0000  32.0650
    114    2 S    16     19.115973      9.196703      5.500000   6.0000  32.0650
    115    1 W    74     20.709000      8.277000      7.072797  14.0000 183.8400
    116    2 S    16     22.301973      9.196703      8.645595   6.0000  32.0650
    117    2 S    16     22.301973      9.196703      5.500000   6.0000  32.0650
    118    1 W    74     23.895000      8.277000      7.072797  14.0000 183.8400
    119    2 S    16     25.487973      9.196703      8.645595   6.0000  32.0650
    120    2 S    16     25.487973      9.196703      5.500000   6.0000  32.0650
    121    1 W    74     -6.372000     11.036000      7.072797  14.0000 183.8400
    122    2 S    16     -4.779027     11.955703      8.645595   6.0000  32.0650
    123    2 S    16     -4.779027     11.955703      5.500000   6.0000  32.0650
    124    1 W    74     -3.186000     11.036000      7.072797  14.0000 183.8400
    125    2 S    16     -1.593027     11.955703      8.645595   6.0000  32.0650
    126    2 S    16     -1.593027     11.955703      5.500000   6.0000  32.0650
    127    1 W    74      0.000000     11.036000      7.072797  14.0000 183.8400
    128    2 S    16      1.592973     11.955703      8.645595   6.0000  32.0650
    129    2 S    16      1.592973     11.955703      5.500000   6.0000  32.0650
    130    1 W    74      3.186000     11.036000      7.072797  14.0000 183.8400
    131    2 S    16      4.778973     11.955703      8.645595   6.0000  32.0650
    132    2 S    16      4.778973     11.955703      5.500000   6.0000  32.0650
    133    1 W    74      6.372000     11.036000      7.072797  14.0000 183.8400
    134    2 S    16      7.964973     11.955703      8.645595   6.0000  32.0650
    135    2 S    16      7.964973     11.955703      5.500000   6.0000  32.0650
    136    1 W    74      9.558000     11.036000      7.072797  14.0000 183.8400
    137    2 S    16     11.150973     11.955703      8.645595   6.0000  32.0650
    138    2 S    16     11.150973     11.955703      5.500000   6.0000  32.0650
    139    1 W    74     12.744000     11.036000      7.072797  14.0000 183.8400
    140    2 S    16     14.336973     11.955703      8.645595   6.0000  32.0650
    141    2 S    16     14.336973     11.955703      5.500000   6.0000  32.0650
    142    1 W    74     15.930000     11.036000      7.072797  14.0000 183.8400
    143    2 S    16     17.522973     11.955703      8.645595   6.0000  32.0650
    144    2 S    16     17.522973     11.955703      5.500000   6.0000  32.0650
    145    1 W    74     19.116000     11.036000      7.072797  14.0000 183.8400
    146    2 S    16     20.708973     11.955703      8.645595   6.0000  32.0650
    147    2 S    16     20.708973     11.955703      5.500000   6.0000  32.0650
    148    1 W    74     22.302000     11.036000      7.072797  14.0000 183.8400
    149    2 S    16     23.894973     11.955703      8.645595   6.0000  32.0650
    150    2 S    16     23.894973     11.955703      5.500000   6.0000  32.0650
    151    1 W    74     -7.965000     13.795000      7.072797  14.0000 183.8400
    152    2 S    16     -6.372027     14.714703      8.645595   6.0000  32.0650
    153    2 S    16     -6.372027     14.714703      5.500000   6.0000  32.0650
    154    1 W    74     -4.779000     13.795000      7.072797  14.0000 183.8400
    155    2 S    16     -3.186027     14.714703      8.645595   6.0000  32.0650
    156    2 S    16     -3.186027     14.714703      5.500000   6.0000  32.0650
    157    1 W    74     -1.593000     13.795000      7.072797  14.0000 183.8400
    158    2 S    16     -0.000027     14.714703      8.645595   6.0000  32.0650
    159    2 S    16     -0.000027     14.714703      5.500000   6.0000  32.0650
    160    1 W    74      1.593000     13.795000      7.072797  14.0000 183.8400
    161    2 S    16      3.185973     14.714703      8.645595   6.0000  32.0650
    162    2 S    16      3.185973     14.714703      5.500000   6.0000  32.0650
    163    1 W    74      4.779000     13.795000      7.072797  14.0000 183.8400
    164    2 S    16      6.371973     14.714703      8.645595   6.0000  32.0650
    165    2 S    16      6.371973     14.714703      5.500000   6.0000  32.0650
    166    1 W    74      7.965000     13.795000      7.072797  14.0000 183.8400
    167    2 S    16      9.557973     14.714703      8.645595   6.0000  32.0650
    168    2 S    16      9.557973     14.714703      5.500000   6.0000  32.0650
    169    1 W    74     11.151000     13.795000      7.072797  14.0000 183.8400
    170    2 S    16     12.743973     14.714703      8.645595   6.0000  32.0650
    171    2 S    16     12.743973     14.714703      5.500000   6.0000  32.0650
    172    1 W    74     14.337000     13.795000      7.072797  14.0000 183.8400
    173    2 S    16     15.929973     14.714703      8.645595   6.0000  32.0650
    174    2 S    16     15.929973     14.714703      5.500000   6.0000  32.0650
    175    1 W    74     17.523000     13.795000      7.072797  14.0000 183.8400
    176    2 S    16     19.115973     14.714703      8.645595   6.0000  32.0650
    177    2 S    16     19.115973     14.714703      5.500000   6.0000  32.0650
    178    1 W    74     20.709000     13.795000      7.072797  14.0000 183.8400
    179    2 S    16     22.301973     14.714703      8.645595   6.0000  32.0650
    180    2 S    16     22.301973     14.714703      5.500000   6.0000  32.0650
    181    1 W    74     -9.558000     16.554000      7.072797  14.0000 183.8400
    182    2 S    16     -7.965027     17.473703      8.645595   6.0000  32.0650
    183    2 S    16     -7.965027     17.473703      5.500000   6.0000  32.0650
    184    1 W    74     -6.372000     16.554000      7.072797  14.0000 183.8400
    185    2 S    16     -4.779027     17.473703      8.645595   6.0000  32.0650
    186    2 S    16     -4.779027     17.473703      5.500000   6.0000  32.0650
    187    1 W    74     -3.186000     16.554000      7.072797  14.0000 183.8400
    188    2 S    16     -1.593027     17.473703      8.645595   6.0000  32.0650
    189    2 S    16     -1.593027     17.473703      5.500000   6.0000  32.0650
    190    1 W    74      0.000000     16.554000      7.072797  14.0000 183.8400
    191    2 S    16      1.592973     17.473703      8.645595   6.0000  32.0650
    192    2 S    16      1.592973     17.473703      5.500000   6.0000  32.0650
    193    1 W    74      3.186000     16.554000      7.072797  14.0000 183.8400
    194    2 S    16      4.778973     17.473703      8.645595   6.0000  32.0650
    195    2 S    16      4.778973     17.473703      5.500000   6.0000  32.0650
    196    1 W    74      6.372000     16.554000      7.072797  14.0000 183.8400
    197    2 S    16      7.964973     17.473703      8.645595   6.0000  32.0650
    198    2 S    16      7.964973     17.473703      5.500000   6.0000  32.0650
    199    1 W    74      9.558000     16.554000      7.072797  14.0000 183.8400
    200    2 S    16     11.150973     17.473703      8.645595   6.0000  32.0650
    201    2 S    16     11.150973     17.473703      5.500000   6.0000  32.0650
    202    1 W    74     12.744000     16.554000      7.072797  14.0000 183.8400
    203    2 S    16     14.336973     17.473703      8.645595   6.0000  32.0650
    204    2 S    16     14.336973     17.473703      5.500000   6.0000  32.0650
    205    1 W    74     15.930000     16.554000      7.072797  14.0000 183.8400
    206    2 S    16     17.522973     17.473703      8.645595   6.0000  32.0650
    207    2 S    16     17.522973     17.473703      5.500000   6.0000  32.0650
    208    1 W    74     19.116000     16.554000      7.072797  14.0000 183.8400
    209    2 S    16     20.708973     17.473703      8.645595   6.0000  32.0650
[...]
 number of processed stacks               5241796       3.3%     96.7%      0.0%
 average stack size                                     1.0       7.3       0.0
 marketing flops                   818.892046E+09
 -------------------------------------------------------------------------------
 # multiplications                              8
 max memory usage/rank               1.212101E+09
 # max total images/rank                        7
 # max 3D layers                                1
 # MPI messages exchanged                 1200640
 MPI messages size (bytes):
  total size                       127.500665E+09
  min size                           0.000000E+00
  max size                         253.344000E+03
  average size                     106.193914E+03
 MPI breakdown and total messages size (bytes):
             size <=      128               45220                        0
       128 < size <=     8192                6403                 39540368
      8192 < size <=    32768               94867               1677356480
     32768 < size <=   131072              580558              51045722704
    131072 < size <=  4194304              473592              74738009248
   4194304 < size <= 16777216                   0                        0
  16777216 < size                               0                        0
 -------------------------------------------------------------------------------

 *** WARNING in dbcsr_mm.F:290 :: Using a non-square number of MPI ranks ***
 *** might lead to poor performance. Used ranks: 560 Suggested: 576 1089 ***

 -------------------------------------------------------------------------------
 -                                                                             -
 -                      DBCSR MESSAGE PASSING PERFORMANCE                      -
 -                                                                             -
 -------------------------------------------------------------------------------
 ROUTINE             CALLS      AVE VOLUME [Bytes]
 MP_Bcast              457                     12.
 MP_Allreduce          975                     25.
 MP_Alltoall        260019                1179598.
 MP_ISend             4358                  53463.
 MP_IRecv             4350                  53123.
 -------------------------------------------------------------------------------

 -------------------------------------------------------------------------------
 -                                                                             -
 -                                DBM STATISTICS                               -
 -                                                                             -
 -------------------------------------------------------------------------------
    M  x    N  x    K                                          COUNT     PERCENT
    ?  x  ???  x   ??                                    62067130137       2.21%
    ?  x  ???  x    ?                                   503603482428      17.97%
   ??  x >999  x   ??                                     1062450248       0.04%
   ??  x   ??  x  ???                                   245827321261       8.77%
   ??  x   ??  x >999                                      932344017       0.03%
    ?  x    ?  x    ?                                   911278884292      32.51%
   ??  x    ?  x  ???                                    43692401488       1.56%
   ??  x >999  x    ?                                     8548714640       0.30%
  ???  x   ??  x   ??                                   317600098496      11.33%
   ??  x    ?  x >999                                     8178302313       0.29%
    ?  x   ??  x >999                                     8151685212       0.29%
   ??  x   ??  x   ??                                    63928514242       2.28%
    ?  x    ?  x  ???                                   364398836453      13.00%
    ?  x   ??  x  ???                                    42003280849       1.50%
    ?  x    ?  x >999                                    71367518506       2.55%
    ?  x >999  x    ?                                    79914346168       2.85%
   ??  x  ???  x    ?                                    53965508220       1.93%
   ??  x  ???  x   ??                                     6631010768       0.24%
    ?  x >999  x   ??                                     9952901964       0.36%
 -------------------------------------------------------------------------------

 -------------------------------------------------------------------------------
 -                                                                             -
 -                                GRID STATISTICS                              -
 -                                                                             -
 -------------------------------------------------------------------------------
 LP    KERNEL             BACKEND                              COUNT     PERCENT
 4     collocate general  CPU                                2877000      21.77%
 4     integrate general  CPU                                2877000      21.77%
 5     collocate general  CPU                                2781000      21.04%
 5     integrate general  CPU                                2781000      21.04%
 6     collocate general  CPU                                 698500       5.28%
 6     integrate general  CPU                                 698500       5.28%
 0     collocate general  CPU                                 336000       2.54%
 0     integrate general  CPU                                 168000       1.27%
 -------------------------------------------------------------------------------

 MEMORY| Estimated peak process memory [MiB]                               14757

 -------------------------------------------------------------------------------
 ----                             MULTIGRID INFO                            ----
 -------------------------------------------------------------------------------
 count for grid        1:       15940000          cutoff [a.u.]          250.00
 count for grid        2:        8067520          cutoff [a.u.]           83.33
 count for grid        3:        3380060          cutoff [a.u.]           27.78
 count for grid        4:        1015560          cutoff [a.u.]            9.26
 total gridlevel count  :       28403140

 -------------------------------------------------------------------------------
 -                                                                             -
 -                         MESSAGE PASSING PERFORMANCE                         -
 -                                                                             -
 -------------------------------------------------------------------------------

 ROUTINE             CALLS      AVE VOLUME [Bytes]
 MP_Group            16148
 MP_Bcast            23822                 260961.
 MP_Allreduce        30537                  15326.
 MP_Sync             24179
 MP_Alltoall         10580                6123968.
 MP_SendRecv          8385                  52949.
 MP_ISendRecv         8385                  52949.
 MP_Wait             27047
 MP_comm_split        9338
 MP_ISend          1346376                 440386.
 MP_IRecv          1650676                 384654.
 -------------------------------------------------------------------------------


 -------------------------------------------------------------------------------
 -                                                                             -
 -                           R E F E R E N C E S                               -
 -                                                                             -
 -------------------------------------------------------------------------------
 
 CP2K version 2023.1 (Development Version), the CP2K developers group (2023).
 CP2K is freely available from https://www.cp2k.org/ .

 Kuehne,Thomas D.; Iannuzzi,Marcella; Del Ben,Mauro;
 Rybkin,Vladimir V.; Seewald,Patrick; Stein,Frederick; Laino,Teodoro;
 Khaliullin,Rustam Z.; Schuett,Ole; Schiffmann,Florian; Golze,Dorothea;
 Wilhelm,Jan; Chulkov,Sergey; Bani-Hashemian,Mohammad Hossein;
 Weber,Valery; Borstnik,Urban; Taillefumier,Mathieu;
 Jakobovits,Alice Shoshana; Lazzaro,Alfio; Pabst,Hans; Mueller,Tiziano;
 Schade,Robert; Guidon,Manuel; Andermatt,Samuel; Holmberg,Nico;
 Schenter,Gregory K.; Hehn,Anna; Bussy,Augustin; Belleflamme,Fabian;
 Tabacchi,Gloria; Gloess,Andreas; Lass,Michael; Bethune,Iain;
 Mundy,Christopher J.; Plessl,Christian; Watkins,Matt;
 VandeVondele,Joost; Krack,Matthias; Hutter,Juerg. 
 The Journal of Chemical Physics, 152 (19), (2020). 
 CP2K: An electronic structure and molecular dynamics software package -
 Quickstep: Efficient and accurate electronic structure calculations.
 https://doi.org/10.1063/5.0007045

 Wilhelm, J; Golze, D; Talirz, L; Hutter, J; Pignedoli, CA. 
 JOURNAL OF PHYSICAL CHEMISTRY LETTERS, 9, 306-312 (2018). 
 Toward GW calculations on thousands of atoms.
 https://doi.org/10.1021/acs.jpclett.7b02740

 Wilhelm, J; Hutter, J. PHYSICAL REVIEW B, 95, 235123 (2017). 
 Periodic GW calculations in the Gaussian and plane-waves scheme.
 https://doi.org/10.1103/PhysRevB.95.235123

 Wilhelm, J; Del Ben, M; Hutter, J. 
 JOURNAL OF CHEMICAL THEORY AND COMPUTATION, 12, 3623-3635 (2016). 
 GW in the Gaussian and plane waves scheme with application to linear acenes.
 https://doi.org/10.1021/acs.jctc.6b00380

 Wilhelm, J; Seewald, P; Del Ben, M; Hutter, J. 
 JOURNAL OF CHEMICAL THEORY AND COMPUTATION, 12, 5851-5859 (2016). 
 Large-Scale Cubic-Scaling Random Phase Approximation Correlation.
 https://doi.org/10.1021/acs.jctc.6b00840

 Schuett, Ole; Messmer, Peter; Hutter, Juerg; VandeVondele, Joost. 
 Electronic Structure Calculations on Graphics Processing Units, John
 Wiley & Sons, Ltd, 173-190 (2016). 
 GPU-Accelerated Sparse Matrix-Matrix Multiplication for
 Linear Scaling Density Functional Theory.
 https://doi.org/10.1002/9781118670712.ch8

 Heinecke, A; Henry, G; Hutchinson, M; Pabst, H. 
 Proceedings of Intl. Supercomputing Conference, 981-991 (2016). 
 LIBXSMM: Accelerating Small Matrix Multiplications
 by Runtime Code Generation.
 https://doi.org/10.1109/SC.2016.83

 Del Ben, M; Schuett, O; Wentz, T; Messmer, P; Hutter, J;
 VandeVondele, J. 
 COMPUTER PHYSICS COMMUNICATIONS, 187, 120-129 (2015). 
 Enabling simulation at the fifth rung of DFT: Large scale RPA
 calculations with excellent time to solution.
 https://doi.org/10.1016/j.cpc.2014.10.021

 Borstnik, U; VandeVondele, J; Weber, V; Hutter, J. 
 PARALLEL COMPUTING, 40 (5-6), 47-58 (2014). 
 Sparse matrix multiplication: The distributed block-compressed sparse
 row library.
 https://doi.org/10.1016/j.parco.2014.03.012

 Hutter, J; Iannuzzi, M; Schiffmann, F; VandeVondele, J. 
 WIREs Comput Mol Sci., 4 (1), 15-25 (2014). 
 CP2K: atomistic simulations of condensed matter systems.
 https://doi.org/10.1002/wcms.1159

 Marek, A; Blum, V; Johanni, R; Havu, V; Lang, B; Auckenthaler, T;
 Heinecke, A; Bungartz, H; Lederer, H. 
 Journal of Physics: Condensed Matter, 26 (21), (2014). 
 The ELPA library: scalable parallel eigenvalue solutions for
 electronic structure
 theory and computational science.
 https://doi.org/10.1088/0953-8984/26/21/213201

 Del Ben, M; Hutter, J; VandeVondele, J. 
 JOURNAL OF CHEMICAL THEORY AND COMPUTATION, 9 (6), 2654-2671 (2013). 
 Electron Correlation in the Condensed Phase from a Resolution of
 Identity Approach Based on the Gaussian and Plane Waves Scheme.
 https://doi.org/10.1021/ct4002202

 Del Ben, M; Hutter, J; VandeVondele, J. 
 JOURNAL OF CHEMICAL THEORY AND COMPUTATION, 8 (11), 4177-4188 (2012). 
 Second-Order Moller-Plesset Perturbation Theory in the Condensed Phase:
 An Efficient and Massively Parallel Gaussian and Plane Waves Approach.
 https://doi.org/10.1021/ct300531w

 VandeVondele, J; Hutter, J. 
 JOURNAL OF CHEMICAL PHYSICS, 127 (11), 114105 (2007). 
 Gaussian basis sets for accurate calculations on molecular systems in
 gas and condensed phases.
 https://doi.org/10.1063/1.2770708

 Krack, M. 
 THEORETICAL CHEMISTRY ACCOUNTS, 114 (1-3), 145-152 (2005). 
 Pseudopotentials for H to Kr optimized for gradient-corrected
 exchange-correlation functionals.
 https://doi.org/10.1007/s00214-005-0655-y

 VandeVondele, J; Krack, M; Mohamed, F; Parrinello, M; Chassaing, T;
 Hutter, J. COMPUTER PHYSICS COMMUNICATIONS, 167 (2), 103-128 (2005). 
 QUICKSTEP: Fast and accurate density functional calculations using a
 mixed Gaussian and plane waves approach.
 https://doi.org/10.1016/j.cpc.2004.12.014

 Frigo, M; Johnson, SG. 
 PROCEEDINGS OF THE IEEE, 93 (2), 216-231 (2005). 
 The design and implementation of FFTW3.
 https://doi.org/10.1109/JPROC.2004.840301

 Hartwigsen, C; Goedecker, S; Hutter, J. 
 PHYSICAL REVIEW B, 58 (7), 3641-3662 (1998). 
 Relativistic separable dual-space Gaussian pseudopotentials from H to Rn.
 https://doi.org/10.1103/PhysRevB.58.3641

 Lippert, G; Hutter, J; Parrinello, M. 
 MOLECULAR PHYSICS, 92 (3), 477-487 (1997). 
 A hybrid Gaussian and plane wave density functional scheme.
 https://doi.org/10.1080/002689797170220

 Goedecker, S; Teter, M; Hutter, J. 
 PHYSICAL REVIEW B, 54 (3), 1703-1710 (1996). 
 Separable dual-space Gaussian pseudopotentials.
 https://doi.org/10.1103/PhysRevB.54.1703


 -------------------------------------------------------------------------------
 -                                                                             -
 -                                T I M I N G                                  -
 -                                                                             -
 -------------------------------------------------------------------------------
 SUBROUTINE                       CALLS  ASD         SELF TIME        TOTAL TIME
                                MAXIMUM       AVERAGE  MAXIMUM  AVERAGE  MAXIMUM
 CP2K                                 1  1.0     0.07     0.28 17939.59 17939.68
 qs_energies                          1  2.0     0.01     0.27 17937.76 17938.02
 mp2_main                             1  3.0     0.00     0.02 17926.54 17926.63
 mp2_gpw_main                         1  4.0     0.00     0.01 17925.24 17925.33
 rpa_ri_compute_en                    1  5.0     0.00     0.00 17127.42 17127.50
 rpa_num_int                          1  6.0     0.01     0.24 16829.12 16829.20
 rpa_num_int_RPA_matrix_operati      30  7.0     0.00     0.00  7976.54  7976.61
 invert_eps_compute_W_and_Erpa_      30  8.0     0.01     0.01  7976.52  7976.58
 dbt_total                         5507  9.8     0.03     0.05  7704.25  7704.49
 dbt_contract                      2205 11.0     0.11     0.16  7099.87  7105.30
 dbt_tas_total                     3259 13.4    39.82    49.84  6957.98  6958.10
 dbt_tas_multiply                  2838 12.9     0.01     0.01  6949.82  6949.94
 compute_Q_kp_RPA                   780  9.0     0.66     0.73  6395.48  6397.16
 compute_QP_energies                  1  7.0     0.00     0.01  6196.37  6196.41
 compute_self_energy_cubic_gw_k       1  8.0     0.22     0.25  6196.24  6196.29
 dbt_tas_dbm                       2838 14.9     0.01     0.01  6071.89  6071.93
 cp_cfm_power                       832  9.9     0.83     1.34  5957.01  5958.18
 cp_cfm_heevd                       961 10.6  5775.42  5777.19  5775.42  5777.19
 dbm_multiply                      2838 16.9  4874.72  5295.68  4874.72  5295.68
 parallel_gemm_cfm                11914 10.2     0.04     0.04  2872.72  2878.53
 parallel_gemm_cfm_cosma          11914 11.2  2872.68  2878.50  2872.68  2878.50
 dbt_tas_mm_2                       658 15.0     0.00     0.00  2753.80  2753.82
 compute_mat_P_omega                  1  7.0     0.00     0.01  2652.65  2652.68
 contract_to_self_energy            558  9.0     0.01     0.02  2635.74  2636.85
 compute_mat_P_omega_contract        30  8.0    17.56    19.04  2628.05  2628.12
 tensor_operation_3c_W              279  9.0     0.00     0.00  2504.32  2504.99
 dbt_tas_mm_3N                      522 16.5     0.00     0.00  1474.63  1737.40
 mp_sync                          24179 12.5  1376.40  1651.26  1376.40  1651.26
 compute_mat_P_omega_calc_P_t       270  9.0     0.00     0.00  1400.67  1400.68
 compute_Wc_real_space_tau_GW       780  9.0     0.01     0.01  1272.17  1273.17
 trafo_to_mo_and_kpoints             61  9.0     0.76     0.93  1013.82  1013.83
 compute_Wc_real_space_tau_GW_3     780 10.0     0.00     0.01   803.08   806.55
 mp2_ri_gpw_compute_in                1  5.0     0.01     0.29   797.78   797.80
 dbt_tas_mm_3T                     1116 16.5     0.00     0.00   700.28   772.91
 get_2c_integrals                     1  6.0     0.00     0.00   761.49   761.50
 dbt_copy                          2781 10.9     0.07     0.08   502.76   542.78
 dbt_reshape                       2741 11.9    99.24   107.30   497.43   537.61
 compute_mat_P_omega_calc_M_occ     270  9.0    17.56    19.03   537.14   537.15
 dbt_tas_mm_1N                      542 15.0     0.00     0.00   390.21   511.56
 mp_waitall_2                     14044 16.9   472.53   501.26   472.53   501.26
 compute_Wc_real_space_tau_GW_2     780 10.0     0.11     0.12   419.76   421.67
 inversion_of_M_and_mult_with_c       1  7.0     0.00     0.00   412.75   412.76
 cp_cfm_cholesky_invert             780 11.0   406.51   406.98   406.51   406.98
 dbt_communicate_buffer            2741 12.9     0.41     0.46   363.90   398.46
 compute_mat_P_omega_calc_M_vir     270  9.0     0.00     0.00   385.60   385.61
 copy_dbcsr_to_fm                  9998 10.8     0.15     0.18   248.03   375.46
 compute_V_by_lattice_sum             1  7.0     0.00     0.03   338.99   339.00
 build_2c_coulomb_matrix_kp           2  8.0     0.00     0.00   206.06   337.67
 lattice_sum                          2  9.0     4.91     7.69   206.06   337.67
 compute_v_transl                 13312 10.0   200.30   328.40   201.04   329.83
 dbcsr_desymmetrize_deep          10058 11.8     0.91     1.28   189.67   317.10
 dbm_redistribute                  1572 16.2   287.65   310.83   287.65   310.83
 get_bandstruc_and_k_dependent_       1  6.0     0.00     0.00   298.29   298.30
 create_kp_and_calc_kp_orbitals       3  7.0     0.00     0.01   298.29   298.30
 mp_alltoall_i22                  40017 12.9   155.70   295.17   155.70   295.17
 cp_cfm_geeig                       129  8.0     0.00     0.00   280.46   280.58
 convert_to_new_pgrid              8514 14.9    17.21    32.22   246.23   259.63
 real_space_to_kpoint_transform      97  9.9    12.38    17.37   221.70   221.94
 dbcsr_new_transposed             19774 10.9     2.45     3.77   206.68   214.30
 dbcsr_redistribute               19768 11.9     6.77    12.03   203.98   213.01
 cp_cfm_cholesky_decompose          909  9.9   206.10   206.14   206.10   206.14
 cholesky_decomp_Q                  780  9.0     0.96     1.11   202.24   204.44
 mp_alltoall_d11v                120061 13.1   199.70   201.20   199.70   201.20
 dbt_tas_replicate                 2497 15.0    46.92    55.67   192.54   200.64
 -------------------------------------------------------------------------------

 The number of warnings for this run is : 2
 
 -------------------------------------------------------------------------------
  **** **** ******  **  PROGRAM ENDED AT                 2023-06-17 06:53:17.695
 ***** ** ***  *** **   PROGRAM RAN ON                                  n2cn0167
 **    ****   ******    PROGRAM RAN BY                                  eprop2d1
 ***** **    ** ** **   PROGRAM PROCESS ID                               2237386
  **** **  *******  **  PROGRAM STOPPED IN /scratch/hpc-prf-eprop2d/eprop2d1_Jan
                                           /02_MoS2_MoSe2_WS2_WSe2/3_WS2/10x10_w
                                           ith_PBE/14_reg_RI_1e-2_TZVP_gap_stand
                                           ard_RI/2_30_minimax/2_regularization_
                                           1.0E-6
