 DBCSR| CPU Multiplication driver                                           XSMM (U)
 DBCSR| Multrec recursion limit                                              512 (U)
 DBCSR| Multiplication stack size                                           1000 (D)
 DBCSR| Maximum elements for images                                    UNLIMITED (U)
 DBCSR| Multiplicative factor virtual images                                   1 (U)
 DBCSR| Use multiplication densification                                       T (D)
 DBCSR| Multiplication size stacks                                             3 (U)
 DBCSR| Number of 3D layers                                               SINGLE (U)
 DBCSR| Use RMA algorithm                                                      F (U)
 DBCSR| Use Communication thread                                               T (U)
 DBCSR| Communication thread load                                             75 (D)
 DBCSR| MPI: My process id                                                     0
 DBCSR| MPI: Number of processes                                             396
 DBCSR| OMP: Current number of threads                                         4
 DBCSR| OMP: Max number of threads                                             4
 DBCSR| Split modifier for TAS multiplication algorithm                  1.0E+00 (U)


  **** **** ******  **  PROGRAM STARTED AT               2023-03-05 10:26:53.354
 ***** ** ***  *** **   PROGRAM STARTED ON                      f1108.nhr.fau.de
 **    ****   ******    PROGRAM STARTED BY                              b165da10
 ***** **    ** ** **   PROGRAM PROCESS ID                               2019699
  **** **  *******  **  PROGRAM STARTED IN /home/atuin/b165da/b165da10/17_MoS2_f
                                           ritz/09x09/1_reg_RI_1e-2

 CP2K| version string:                 CP2K version 2023.1 (Development Version)
 CP2K| source code revision number:                                  git:383ec4c
 CP2K| cp2kflags: omp libint fftw3 libxc parallel mpi_f08 scalapack cosma xsmm p
 CP2K|            lumed2 spglib mkl libvdwxc
 CP2K| is freely available from                            https://www.cp2k.org/
 CP2K| Program compiled at                           Fri Feb 3 21:19:19 CET 2023
 CP2K| Program compiled on                                     fritz3.nhr.fau.de
 CP2K| Program compiled for                                                local
 CP2K| Data directory path    /home/atuin/b165da/b165da10/01_CP2K_compilations/0
 CP2K| Input file name                                               GW_WSe2.inp
 
 GLOBAL| Force Environment number                                              1
 GLOBAL| Basis set file name                                        BASIS_MOLOPT
 GLOBAL| Potential file name                                      GTH_POTENTIALS
 GLOBAL| MM Potential file name                                     MM_POTENTIAL
 GLOBAL| Coordinate file name                                      __STD_INPUT__
 GLOBAL| Method name                                                        CP2K
 GLOBAL| Project name                                                       MoS2
 GLOBAL| Run type                                                         ENERGY
 GLOBAL| FFT library                                                       FFTW3
 GLOBAL| Diagonalization library                                       ScaLAPACK
 GLOBAL| DGEMM library                                                      BLAS
 GLOBAL| Orthonormality check for eigenvectors                          DISABLED
 GLOBAL| Matrix multiplication library                                     COSMA
 GLOBAL| All-to-all communication in single precision                          F
 GLOBAL| FFTs using library dependent lengths                                  F
 GLOBAL| Grid backend                                                       AUTO
 GLOBAL| Global print level                                               MEDIUM
 GLOBAL| MPI I/O enabled                                                       T
 GLOBAL| Total number of message passing processes                           396
 GLOBAL| Number of threads for this process                                    4
 GLOBAL| This output is from process                                           0
 GLOBAL| Stack size for threads created by OpenMP (OMP_STACKSIZE)        default
 GLOBAL| CPU model name            Intel(R) Xeon(R) Platinum 8360Y CPU @ 2.40GHz
 GLOBAL| CPUID                                                              1003

 MEMORY|                        rank 0           min           max       average
 MEMORY| MemTotal            263795712     263781464     263797860     263794560
 MEMORY| MemFree             255026656     246560020     255026656     250708534
 MEMORY| Buffers                   948           356          2676           779
 MEMORY| Cached                2801644       2394772       2851572       2743632
 MEMORY| Slab                  1111276       1111276       8627920       4882725
 MEMORY| SReclaimable           107148        107148        153196        126205
 MEMORY| MemLikelyFree       257936396     249108628     257936396     253579152


 *** Fundamental physical constants (SI units) ***

 *** Literature: B. J. Mohr and B. N. Taylor,
 ***             CODATA recommended values of the fundamental physical
 ***             constants: 2006, Web Version 5.1
 ***             http://physics.nist.gov/constants

 Magnetic constant or permeability of vacuum [N/A**2]       1.25663706143592E-06
 Electric constant or permittivity of vacuum [F/m]          8.85418781762039E-12
 Planck constant (h-bar) [J*s]                              1.05457162825177E-34
 Electron g factor [ ]                                     -2.00231930436220E+00
 Fine-structure constant                                    7.29735253760000E-03
 Rydberg constant [1/m]                                     1.09737315685270E+07
 Bohr radius [m]                                            5.29177208590000E-11

 *** Conversion factors ***

 [u] -> [a.u.]                                              1.82288848426455E+03
 [Angstrom] -> [Bohr] = [a.u.]                              1.88972613288564E+00
 [a.u.] = [Bohr] -> [Angstrom]                              5.29177208590000E-01
 [a.u.] -> [s]                                              2.41888432650478E-17
 [a.u.] -> [fs]                                             2.41888432650478E-02
 [a.u.] -> [J]                                              4.35974393937059E-18
 [a.u.] -> [N]                                              8.23872205491840E-08
 [a.u.] -> [K]                                              3.15774647902944E+05
 [a.u.] -> [kJ/mol]                                         2.62549961709828E+03
 [a.u.] -> [kcal/mol]                                       6.27509468713739E+02
 [a.u.] -> [Pa]                                             2.94210107994716E+13
 [a.u.] -> [bar]                                            2.94210107994716E+08
 [a.u.] -> [atm]                                            2.90362800883016E+08
 [a.u.] -> [eV]                                             2.72113838565563E+01
 [a.u.] -> [Hz]                                             6.57968392072181E+15
 [a.u.] -> [1/cm] (wave numbers)                            2.19474631370540E+05
 [a.u./Bohr**2] -> [1/cm]                                   5.14048714338585E+03
 
 GENERATE|  Preliminary Number of Bonds generated:                             0
 GENERATE|  Achieved consistency in connectivity generation.

 CELL| Volume [angstrom^3]:                                         10440.661539
 CELL| Vector a [angstrom]:      28.350     0.000     0.000   |a| =    28.350000
 CELL| Vector b [angstrom]:     -14.175    24.552     0.000   |b| =    28.350000
 CELL| Numerically orthorhombic:                                              NO
 CELL| Periodicity                                                            XY

 CELL_REF| Volume [angstrom^3]:                                     10440.661539
 CELL_REF| Vector a [angstrom    28.350     0.000     0.000   |a| =    28.350000
 CELL_REF| Vector b [angstrom   -14.175    24.552     0.000   |b| =    28.350000
 CELL_REF| Numerically orthorhombic:                                          NO
 CELL_REF| Periodicity                                                        XY

 *******************************************************************************
 *******************************************************************************
 **                                                                           **
 **     #####                         ##              ##                      **
 **    ##   ##            ##          ##              ##                      **
 **   ##     ##                       ##            ######                    **
 **   ##     ##  ##   ##  ##   #####  ##  ##   ####   ##    #####    #####    **
 **   ##     ##  ##   ##  ##  ##      ## ##   ##      ##   ##   ##  ##   ##   **
 **   ##  ## ##  ##   ##  ##  ##      ####     ###    ##   ######   ######    **
 **    ##  ###   ##   ##  ##  ##      ## ##      ##   ##   ##       ##        **
 **     #######   #####   ##   #####  ##  ##  ####    ##    #####   ##        **
 **           ##                                                    ##        **
 **                                                                           **
 **                                                ... make the atoms dance   **
 **                                                                           **
 **            Copyright (C) by CP2K developers group (2000-2023)             **
 **                      J. Chem. Phys. 152, 194103 (2020)                    **
 **                                                                           **
 *******************************************************************************
  MB
  MB
 B
 B

 DFT| Spin restricted Kohn-Sham (RKS) calculation                            RKS
 DFT| Multiplicity                                                             1
 DFT| Number of spin states                                                    1
 DFT| Charge                                                                   0
 DFT| Self-interaction correction (SIC)                                       NO
 DFT| XC density smoothing                                                  NONE
 DFT| XC derivatives                                                          PW

 FUNCTIONAL| PADE:
 FUNCTIONAL| S. Goedecker, M. Teter and J. Hutter, Phys. Rev. B 54, 1703 (1996) 


 QS| Method:                                                                 GPW
 QS| Density plane wave grid type                        NON-SPHERICAL FULLSPACE
 QS| Number of grid levels:                                                    4
 QS| Density cutoff [a.u.]:                                                250.0
 QS| Multi grid cutoff [a.u.]: 1) grid level                               250.0
 QS|                           2) grid level                                83.3
 QS|                           3) grid level                                27.8
 QS|                           4) grid level                                 9.3
 QS| Grid level progression factor:                                          3.0
 QS| Relative density cutoff [a.u.]:                                        50.0
 QS| Interaction thresholds: eps_pgf_orb:                                1.0E-40
 QS|                         eps_filter_matrix:                          0.0E+00
 QS|                         eps_core_charge:                            1.0E-42
 QS|                         eps_rho_gspace:                             1.0E-40
 QS|                         eps_rho_rspace:                             1.0E-40
 QS|                         eps_gvg_rspace:                             1.0E-20
 QS|                         eps_ppl:                                    1.0E-02
 QS|                         eps_ppnl:                                   1.0E-22


 ATOMIC KIND INFORMATION

  1. Atomic kind: Mo                                    Number of atoms:      81

     Orbital Basis Set                              TZVP-MOLOPT-SR-GTH_robust_12

       Number of orbital shell sets:                                           1
       Number of orbital shells:                                              11
       Number of primitive Cartesian functions:                                7
       Number of Cartesian basis functions:                                   41
       Number of spherical basis functions:                                   35
       Norm type:                                                              2

       Normalised Cartesian orbitals:

                        Set   Shell   Orbital            Exponent    Coefficient

                          1       1    2s                2.540273      -1.345673
                                                         1.999996       0.727257
                                                         0.894040       0.537681
                                                         0.439257       0.138693
                                                         0.189498       0.017367
                                                         0.110000       0.032945

                          1       2    3s                2.540273       0.114163
                                                         1.999996      -0.250260
                                                         0.894040       0.156531
                                                         0.439257       0.021259
                                                         0.189498      -0.094450
                                                         0.110000       0.527481

                          1       3    4s                2.540273       0.776470
                                                         1.999996      -2.724036
                                                         0.894040       1.964078
                                                         0.439257      -0.908890
                                                         0.189498       0.239910
                                                         0.110000      -1.638373

                          1       4    5s                2.540273       0.193805
                                                         1.999996       0.674775
                                                         0.894040      -0.282582
                                                         0.439257       0.089402
                                                         0.189498      -0.137139
                                                         0.110000      -0.488537

                          1       5    3px               2.540273       3.691791
                                                         1.999996      -3.563133
                                                         0.894040      -0.805476
                                                         0.439257      -0.103576
                                                         0.189498       0.030607
                                                         0.110000       0.070996
                          1       5    3py               2.540273       3.691791
                                                         1.999996      -3.563133
                                                         0.894040      -0.805476
                                                         0.439257      -0.103576
                                                         0.189498       0.030607
                                                         0.110000       0.070996
                          1       5    3pz               2.540273       3.691791
                                                         1.999996      -3.563133
                                                         0.894040      -0.805476
                                                         0.439257      -0.103576
                                                         0.189498       0.030607
                                                         0.110000       0.070996

                          1       6    4px               2.540273       0.129010
                                                         1.999996       0.099026
                                                         0.894040      -0.136173
                                                         0.439257      -0.038137
                                                         0.189498      -0.099149
                                                         0.110000       0.214113
                          1       6    4py               2.540273       0.129010
                                                         1.999996       0.099026
                                                         0.894040      -0.136173
                                                         0.439257      -0.038137
                                                         0.189498      -0.099149
                                                         0.110000       0.214113
                          1       6    4pz               2.540273       0.129010
                                                         1.999996       0.099026
                                                         0.894040      -0.136173
                                                         0.439257      -0.038137
                                                         0.189498      -0.099149
                                                         0.110000       0.214113

                          1       7    5px               2.540273       0.471976
                                                         1.999996       0.044875
                                                         0.894040      -0.003198
                                                         0.439257      -0.397109
                                                         0.189498      -0.027230
                                                         0.110000      -0.427107
                          1       7    5py               2.540273       0.471976
                                                         1.999996       0.044875
                                                         0.894040      -0.003198
                                                         0.439257      -0.397109
                                                         0.189498      -0.027230
                                                         0.110000      -0.427107
                          1       7    5pz               2.540273       0.471976
                                                         1.999996       0.044875
                                                         0.894040      -0.003198
                                                         0.439257      -0.397109
                                                         0.189498      -0.027230
                                                         0.110000      -0.427107

                          1       8    4dx2              2.540273      -1.452114
                                                         1.999996       1.851969
                                                         0.894040       0.336748
                                                         0.439257       0.134418
                                                         0.189498       0.030638
                                                         0.110000      -0.028347
                          1       8    4dxy              2.540273      -2.515135
                                                         1.999996       3.207704
                                                         0.894040       0.583264
                                                         0.439257       0.232819
                                                         0.189498       0.053066
                                                         0.110000      -0.049099
                          1       8    4dxz              2.540273      -2.515135
                                                         1.999996       3.207704
                                                         0.894040       0.583264
                                                         0.439257       0.232819
                                                         0.189498       0.053066
                                                         0.110000      -0.049099
                          1       8    4dy2              2.540273      -1.452114
                                                         1.999996       1.851969
                                                         0.894040       0.336748
                                                         0.439257       0.134418
                                                         0.189498       0.030638
                                                         0.110000      -0.028347
                          1       8    4dyz              2.540273      -2.515135
                                                         1.999996       3.207704
                                                         0.894040       0.583264
                                                         0.439257       0.232819
                                                         0.189498       0.053066
                                                         0.110000      -0.049099
                          1       8    4dz2              2.540273      -1.452114
                                                         1.999996       1.851969
                                                         0.894040       0.336748
                                                         0.439257       0.134418
                                                         0.189498       0.030638
                                                         0.110000      -0.028347

                          1       9    5dx2              2.540273       1.091564
                                                         1.999996      -1.380594
                                                         0.894040      -0.266409
                                                         0.439257      -0.106871
                                                         0.189498       0.052951
                                                         0.110000      -0.123814
                          1       9    5dxy              2.540273       1.890645
                                                         1.999996      -2.391258
                                                         0.894040      -0.461434
                                                         0.439257      -0.185105
                                                         0.189498       0.091714
                                                         0.110000      -0.214453
                          1       9    5dxz              2.540273       1.890645
                                                         1.999996      -2.391258
                                                         0.894040      -0.461434
                                                         0.439257      -0.185105
                                                         0.189498       0.091714
                                                         0.110000      -0.214453
                          1       9    5dy2              2.540273       1.091564
                                                         1.999996      -1.380594
                                                         0.894040      -0.266409
                                                         0.439257      -0.106871
                                                         0.189498       0.052951
                                                         0.110000      -0.123814
                          1       9    5dyz              2.540273       1.890645
                                                         1.999996      -2.391258
                                                         0.894040      -0.461434
                                                         0.439257      -0.185105
                                                         0.189498       0.091714
                                                         0.110000      -0.214453
                          1       9    5dz2              2.540273       1.091564
                                                         1.999996      -1.380594
                                                         0.894040      -0.266409
                                                         0.439257      -0.106871
                                                         0.189498       0.052951
                                                         0.110000      -0.123814

                          1      10    6dx2              2.540273       0.186639
                                                         1.999996       0.227829
                                                         0.894040       1.446911
                                                         0.439257      -0.212124
                                                         0.189498      -0.009110
                                                         0.110000      -0.056981
                          1      10    6dxy              2.540273       0.323269
                                                         1.999996       0.394612
                                                         0.894040       2.506124
                                                         0.439257      -0.367409
                                                         0.189498      -0.015779
                                                         0.110000      -0.098694
                          1      10    6dxz              2.540273       0.323269
                                                         1.999996       0.394612
                                                         0.894040       2.506124
                                                         0.439257      -0.367409
                                                         0.189498      -0.015779
                                                         0.110000      -0.098694
                          1      10    6dy2              2.540273       0.186639
                                                         1.999996       0.227829
                                                         0.894040       1.446911
                                                         0.439257      -0.212124
                                                         0.189498      -0.009110
                                                         0.110000      -0.056981
                          1      10    6dyz              2.540273       0.323269
                                                         1.999996       0.394612
                                                         0.894040       2.506124
                                                         0.439257      -0.367409
                                                         0.189498      -0.015779
                                                         0.110000      -0.098694
                          1      10    6dz2              2.540273       0.186639
                                                         1.999996       0.227829
                                                         0.894040       1.446911
                                                         0.439257      -0.212124
                                                         0.189498      -0.009110
                                                         0.110000      -0.056981

                          1      11    5fx3              2.540273       0.802599
                                                         1.999996      -0.728191
                                                         0.894040      -0.320471
                                                         0.439257      -0.113251
                                                         0.189498      -0.010396
                                                         0.110000       0.004443
                          1      11    5fx2y             2.540273       1.794666
                                                         1.999996      -1.628284
                                                         0.894040      -0.716595
                                                         0.439257      -0.253237
                                                         0.189498      -0.023245
                                                         0.110000       0.009935
                          1      11    5fx2z             2.540273       1.794666
                                                         1.999996      -1.628284
                                                         0.894040      -0.716595
                                                         0.439257      -0.253237
                                                         0.189498      -0.023245
                                                         0.110000       0.009935
                          1      11    5fxy2             2.540273       1.794666
                                                         1.999996      -1.628284
                                                         0.894040      -0.716595
                                                         0.439257      -0.253237
                                                         0.189498      -0.023245
                                                         0.110000       0.009935
                          1      11    5fxyz             2.540273       3.108453
                                                         1.999996      -2.820270
                                                         0.894040      -1.241179
                                                         0.439257      -0.438619
                                                         0.189498      -0.040262
                                                         0.110000       0.017207
                          1      11    5fxz2             2.540273       1.794666
                                                         1.999996      -1.628284
                                                         0.894040      -0.716595
                                                         0.439257      -0.253237
                                                         0.189498      -0.023245
                                                         0.110000       0.009935
                          1      11    5fy3              2.540273       0.802599
                                                         1.999996      -0.728191
                                                         0.894040      -0.320471
                                                         0.439257      -0.113251
                                                         0.189498      -0.010396
                                                         0.110000       0.004443
                          1      11    5fy2z             2.540273       1.794666
                                                         1.999996      -1.628284
                                                         0.894040      -0.716595
                                                         0.439257      -0.253237
                                                         0.189498      -0.023245
                                                         0.110000       0.009935
                          1      11    5fyz2             2.540273       1.794666
                                                         1.999996      -1.628284
                                                         0.894040      -0.716595
                                                         0.439257      -0.253237
                                                         0.189498      -0.023245
                                                         0.110000       0.009935
                          1      11    5fz3              2.540273       0.802599
                                                         1.999996      -0.728191
                                                         0.894040      -0.320471
                                                         0.439257      -0.113251
                                                         0.189498      -0.010396
                                                         0.110000       0.004443

     RI Auxiliary Basis Set                                 def2-SVP-RIFIT-mod-2

       Number of orbital shell sets:                                          17
       Number of orbital shells:                                              17
       Number of primitive Cartesian functions:                               17
       Number of Cartesian basis functions:                                   91
       Number of spherical basis functions:                                   69
       Norm type:                                                              2

       Normalised Cartesian orbitals:

                        Set   Shell   Orbital            Exponent    Coefficient

                          1       1    1s                0.185545       0.201487

                          2       1    1px               0.223731       0.219330
                          2       1    1py               0.223731       0.219330
                          2       1    1pz               0.223731       0.219330

                          3       1    1dx2              0.346956       0.258160
                          3       1    1dxy              0.346956       0.447147
                          3       1    1dxz              0.346956       0.447147
                          3       1    1dy2              0.346956       0.258160
                          3       1    1dyz              0.346956       0.447147
                          3       1    1dz2              0.346956       0.258160

                          4       1    1s                0.360392       0.331506

                          5       1    1fx3              0.410523       0.198593
                          5       1    1fx2y             0.410523       0.444066
                          5       1    1fx2z             0.410523       0.444066
                          5       1    1fxy2             0.410523       0.444066
                          5       1    1fxyz             0.410523       0.769146
                          5       1    1fxz2             0.410523       0.444066
                          5       1    1fy3              0.410523       0.198593
                          5       1    1fy2z             0.410523       0.444066
                          5       1    1fyz2             0.410523       0.444066
                          5       1    1fz3              0.410523       0.198593

                          6       1    1px               0.498778       0.597481
                          6       1    1py               0.498778       0.597481
                          6       1    1pz               0.498778       0.597481

                          7       1    1gx4              0.570000       0.237187
                          7       1    1gx3y             0.570000       0.627538
                          7       1    1gx3z             0.570000       0.627538
                          7       1    1gx2y2            0.570000       0.810149
                          7       1    1gx2yz            0.570000       1.403218
                          7       1    1gx2z2            0.570000       0.810149
                          7       1    1gxy3             0.570000       0.627538
                          7       1    1gxy2z            0.570000       1.403218
                          7       1    1gxyz2            0.570000       1.403218
                          7       1    1gxz3             0.570000       0.627538
                          7       1    1gy4              0.570000       0.237187
                          7       1    1gy3z             0.570000       0.627538
                          7       1    1gy2z2            0.570000       0.810149
                          7       1    1gyz3             0.570000       0.627538
                          7       1    1gz4              0.570000       0.237187

                          8       1    1dx2              0.576698       0.628158
                          8       1    1dxy              0.576698       1.088002
                          8       1    1dxz              0.576698       1.088002
                          8       1    1dy2              0.576698       0.628158
                          8       1    1dyz              0.576698       1.088002
                          8       1    1dz2              0.576698       0.628158

                          9       1    1s                0.619083       0.497418

                         10       1    1s                1.092167       0.761424

                         11       1    1fx3              1.103628       1.837832
                         11       1    1fx2y             1.103628       4.109516
                         11       1    1fx2z             1.103628       4.109516
                         11       1    1fxy2             1.103628       4.109516
                         11       1    1fxyz             1.103628       7.117891
                         11       1    1fxz2             1.103628       4.109516
                         11       1    1fy3              1.103628       1.837832
                         11       1    1fy2z             1.103628       4.109516
                         11       1    1fyz2             1.103628       4.109516
                         11       1    1fz3              1.103628       1.837832

                         12       1    1px               1.390701       2.152694
                         12       1    1py               1.390701       2.152694
                         12       1    1pz               1.390701       2.152694

                         13       1    1dx2              1.439171       3.112475
                         13       1    1dxy              1.439171       5.390965
                         13       1    1dxz              1.439171       5.390965
                         13       1    1dy2              1.439171       3.112475
                         13       1    1dyz              1.439171       5.390965
                         13       1    1dz2              1.439171       3.112475

                         14       1    1gx4              1.615953       4.164995
                         14       1    1gx3y             1.615953      11.019542
                         14       1    1gx3z             1.615953      11.019542
                         14       1    1gx2y2            1.615953      14.226167
                         14       1    1gx2yz            1.615953      24.640444
                         14       1    1gx2z2            1.615953      14.226167
                         14       1    1gxy3             1.615953      11.019542
                         14       1    1gxy2z            1.615953      24.640444
                         14       1    1gxyz2            1.615953      24.640444
                         14       1    1gxz3             1.615953      11.019542
                         14       1    1gy4              1.615953       4.164995
                         14       1    1gy3z             1.615953      11.019542
                         14       1    1gy2z2            1.615953      14.226167
                         14       1    1gyz3             1.615953      11.019542
                         14       1    1gz4              1.615953       4.164995

                         15       1    1px               2.100661       3.604831
                         15       1    1py               2.100661       3.604831
                         15       1    1pz               2.100661       3.604831

                         16       1    1s                2.197983       1.286555

                         17       1    1dx2              2.302596       7.084198
                         17       1    1dxy              2.302596      12.270190
                         17       1    1dxz              2.302596      12.270190
                         17       1    1dy2              2.302596       7.084198
                         17       1    1dyz              2.302596      12.270190
                         17       1    1dz2              2.302596       7.084198

       Atomic covalent radius [Angstrom]:                                  1.300

       Atomic van der Waals radius [Angstrom]:                             1.670

     GTH Potential information for                                  GTH-PADE-q14

       Description:                       Goedecker-Teter-Hutter pseudopotential
                                           Goedecker et al., PRB 54, 1703 (1996)
                                          Hartwigsen et al., PRB 58, 3641 (1998)
                                                      Krack, TCA 114, 145 (2005)

       Gaussian exponent of the core charge distribution:               2.704164
       Electronic configuration (s p d ...):                           3   6   5

       Parameters of the local part of the GTH pseudopotential:

                          rloc        C1          C2          C3          C4
                        0.430000   16.237452    1.496536

       Parameters of the non-local part of the GTH pseudopotential:

                   l      r(l)      h(i,j,l)

                   0    0.376255    3.362426    2.048528
                                    2.048528   -5.289276
                   1    0.361734   -0.379571    1.718923
                                    1.718923   -4.067713
                   2    0.525828   -1.543211   -0.473760
                                   -0.473760    1.074388

  2. Atomic kind: S                                     Number of atoms:     162

     Orbital Basis Set                                  TZVP-MOLOPT-GTH_robust_9

       Number of orbital shell sets:                                           1
       Number of orbital shells:                                               7
       Number of primitive Cartesian functions:                                7
       Number of Cartesian basis functions:                                   18
       Number of spherical basis functions:                                   17
       Norm type:                                                              2

       Normalised Cartesian orbitals:

                        Set   Shell   Orbital            Exponent    Coefficient

                          1       1    2s                3.817591       0.157267
                                                         2.362752      -0.510091
                                                         0.861004      -0.067546
                                                         0.417525       0.341513
                                                         0.181514       0.065074
                                                         0.120000       0.001196
                                                         0.140000      -0.001073

                          1       2    3s                3.817591      -0.191568
                                                         2.362752       0.523701
                                                         0.861004       0.282710
                                                         0.417525      -0.587888
                                                         0.181514       0.178884
                                                         0.120000       0.543819
                                                         0.140000      -0.487887

                          1       3    4s                3.817591      -0.991151
                                                         2.362752       1.865280
                                                         0.861004       0.135387
                                                         0.417525      -0.133451
                                                         0.181514       0.078400
                                                         0.120000      -0.405526
                                                         0.140000       0.363817

                          1       4    3px               3.817591      -0.172566
                                                         2.362752      -0.175790
                                                         0.861004       0.224449
                                                         0.417525       0.286658
                                                         0.181514       0.049751
                                                         0.120000       0.014921
                                                         0.140000      -0.014459
                          1       4    3py               3.817591      -0.172566
                                                         2.362752      -0.175790
                                                         0.861004       0.224449
                                                         0.417525       0.286658
                                                         0.181514       0.049751
                                                         0.120000       0.014921
                                                         0.140000      -0.014459
                          1       4    3pz               3.817591      -0.172566
                                                         2.362752      -0.175790
                                                         0.861004       0.224449
                                                         0.417525       0.286658
                                                         0.181514       0.049751
                                                         0.120000       0.014921
                                                         0.140000      -0.014459

                          1       5    4px               3.817591       0.010507
                                                         2.362752       0.217406
                                                         0.861004      -0.162395
                                                         0.417525      -0.206857
                                                         0.181514       0.107046
                                                         0.120000       0.290385
                                                         0.140000      -0.281393
                          1       5    4py               3.817591       0.010507
                                                         2.362752       0.217406
                                                         0.861004      -0.162395
                                                         0.417525      -0.206857
                                                         0.181514       0.107046
                                                         0.120000       0.290385
                                                         0.140000      -0.281393
                          1       5    4pz               3.817591       0.010507
                                                         2.362752       0.217406
                                                         0.861004      -0.162395
                                                         0.417525      -0.206857
                                                         0.181514       0.107046
                                                         0.120000       0.290385
                                                         0.140000      -0.281393

                          1       6    5px               3.817591      -0.947232
                                                         2.362752       1.731661
                                                         0.861004      -1.484366
                                                         0.417525       0.775915
                                                         0.181514       0.065997
                                                         0.120000      -0.317574
                                                         0.140000       0.307740
                          1       6    5py               3.817591      -0.947232
                                                         2.362752       1.731661
                                                         0.861004      -1.484366
                                                         0.417525       0.775915
                                                         0.181514       0.065997
                                                         0.120000      -0.317574
                                                         0.140000       0.307740
                          1       6    5pz               3.817591      -0.947232
                                                         2.362752       1.731661
                                                         0.861004      -1.484366
                                                         0.417525       0.775915
                                                         0.181514       0.065997
                                                         0.120000      -0.317574
                                                         0.140000       0.307740

                          1       7    4dx2              3.817591       0.133441
                                                         2.362752       0.805146
                                                         0.861004       0.452959
                                                         0.417525       0.174839
                                                         0.181514       0.017641
                                                         0.120000      -0.004028
                                                         0.140000       0.004216
                          1       7    4dxy              3.817591       0.231126
                                                         2.362752       1.394554
                                                         0.861004       0.784547
                                                         0.417525       0.302830
                                                         0.181514       0.030555
                                                         0.120000      -0.006976
                                                         0.140000       0.007302
                          1       7    4dxz              3.817591       0.231126
                                                         2.362752       1.394554
                                                         0.861004       0.784547
                                                         0.417525       0.302830
                                                         0.181514       0.030555
                                                         0.120000      -0.006976
                                                         0.140000       0.007302
                          1       7    4dy2              3.817591       0.133441
                                                         2.362752       0.805146
                                                         0.861004       0.452959
                                                         0.417525       0.174839
                                                         0.181514       0.017641
                                                         0.120000      -0.004028
                                                         0.140000       0.004216
                          1       7    4dyz              3.817591       0.231126
                                                         2.362752       1.394554
                                                         0.861004       0.784547
                                                         0.417525       0.302830
                                                         0.181514       0.030555
                                                         0.120000      -0.006976
                                                         0.140000       0.007302
                          1       7    4dz2              3.817591       0.133441
                                                         2.362752       0.805146
                                                         0.861004       0.452959
                                                         0.417525       0.174839
                                                         0.181514       0.017641
                                                         0.120000      -0.004028
                                                         0.140000       0.004216

     RI Auxiliary Basis Set                                 def2-SVP-RIFIT-mod-1

       Number of orbital shell sets:                                          13
       Number of orbital shells:                                              13
       Number of primitive Cartesian functions:                               13
       Number of Cartesian basis functions:                                   54
       Number of spherical basis functions:                                   45
       Norm type:                                                              2

       Normalised Cartesian orbitals:

                        Set   Shell   Orbital            Exponent    Coefficient

                          1       1    1s                0.197811       0.211396

                          2       1    1dx2              0.242242       0.137672
                          2       1    1dxy              0.242242       0.238455
                          2       1    1dxz              0.242242       0.238455
                          2       1    1dy2              0.242242       0.137672
                          2       1    1dyz              0.242242       0.238455
                          2       1    1dz2              0.242242       0.137672

                          3       1    1px               0.324549       0.349172
                          3       1    1py               0.324549       0.349172
                          3       1    1pz               0.324549       0.349172

                          4       1    1s                0.389135       0.351144

                          5       1    1fx3              0.529340       0.351850
                          5       1    1fx2y             0.529340       0.786760
                          5       1    1fx2z             0.529340       0.786760
                          5       1    1fxy2             0.529340       0.786760
                          5       1    1fxyz             0.529340       1.362708
                          5       1    1fxz2             0.529340       0.786760
                          5       1    1fy3              0.529340       0.351850
                          5       1    1fy2z             0.529340       0.786760
                          5       1    1fyz2             0.529340       0.786760
                          5       1    1fz3              0.529340       0.351850

                          6       1    1dx2              0.603367       0.679871
                          6       1    1dxy              0.603367       1.177572
                          6       1    1dxz              0.603367       1.177572
                          6       1    1dy2              0.603367       0.679871
                          6       1    1dyz              0.603367       1.177572
                          6       1    1dz2              0.603367       0.679871

                          7       1    1px               0.631252       0.802035
                          7       1    1py               0.631252       0.802035
                          7       1    1pz               0.631252       0.802035

                          8       1    1s                0.936032       0.678232

                          9       1    1dx2              1.115385       1.992520
                          9       1    1dxy              1.115385       3.451146
                          9       1    1dxz              1.115385       3.451146
                          9       1    1dy2              1.115385       1.992520
                          9       1    1dyz              1.115385       3.451146
                          9       1    1dz2              1.115385       1.992520

                         10       1    1fx3              1.132321       1.947088
                         10       1    1fx2y             1.132321       4.353822
                         10       1    1fx2z             1.132321       4.353822
                         10       1    1fxy2             1.132321       4.353822
                         10       1    1fxyz             1.132321       7.541040
                         10       1    1fxz2             1.132321       4.353822
                         10       1    1fy3              1.132321       1.947088
                         10       1    1fy2z             1.132321       4.353822
                         10       1    1fyz2             1.132321       4.353822
                         10       1    1fz3              1.132321       1.947088

                         11       1    1px               1.173306       1.740620
                         11       1    1py               1.173306       1.740620
                         11       1    1pz               1.173306       1.740620

                         12       1    1s                2.064006       1.227279

                         13       1    1px               2.625789       4.764474
                         13       1    1py               2.625789       4.764474
                         13       1    1pz               2.625789       4.764474

       Atomic covalent radius [Angstrom]:                                  1.020

       Atomic van der Waals radius [Angstrom]:                             1.800

     GTH Potential information for                                   GTH-PADE-q6

       Description:                       Goedecker-Teter-Hutter pseudopotential
                                           Goedecker et al., PRB 54, 1703 (1996)
                                          Hartwigsen et al., PRB 58, 3641 (1998)
                                                      Krack, TCA 114, 145 (2005)

       Gaussian exponent of the core charge distribution:               2.834467
       Electronic configuration (s p d ...):                               2   4

       Parameters of the local part of the GTH pseudopotential:

                          rloc        C1          C2          C3          C4
                        0.420000   -6.554492

       Parameters of the non-local part of the GTH pseudopotential:

                   l      r(l)      h(i,j,l)

                   0    0.361757    7.905303   -1.731881
                                   -1.731881    4.471698
                   1    0.405285    3.866579


 MOLECULE KIND INFORMATION


 All atoms are their own molecule, skipping detailed information


 TOTAL NUMBERS AND MAXIMUM NUMBERS

  Total number of            - Atomic kinds:                                   2
                             - Atoms:                                        243
                             - Shell sets:                                   243
                             - Shells:                                      2025
                             - Primitive Cartesian functions:               1701
                             - Cartesian basis functions:                   6237
                             - Spherical basis functions:                   5589

  Maximum angular momentum of- Orbital basis functions:                        3
                             - Local part of the GTH pseudopotential:          2
                             - Non-local part of the GTH pseudopotential:      4


 MODULE QUICKSTEP: ATOMIC COORDINATES IN ANGSTROM

   Atom Kind Element         X             Y             Z       Z(eff)     Mass
      4    1 Mo   42      3.150000      1.818650      3.075000  14.0000  95.9600
      5    2 S    16      3.150000      3.637310      1.488300   6.0000  32.0650
      6    2 S    16      3.150000      3.637310      4.661700   6.0000  32.0650
     10    1 Mo   42      9.450000      1.818650      3.075000  14.0000  95.9600
     11    2 S    16      9.450000      3.637310      1.488300   6.0000  32.0650
     12    2 S    16      9.450000      3.637310      4.661700   6.0000  32.0650
     16    1 Mo   42     15.750000      1.818650      3.075000  14.0000  95.9600
     17    2 S    16     15.750000      3.637310      1.488300   6.0000  32.0650
     18    2 S    16     15.750000      3.637310      4.661700   6.0000  32.0650
     22    1 Mo   42     22.050000      1.818650      3.075000  14.0000  95.9600
     23    2 S    16     22.050000      3.637310      1.488300   6.0000  32.0650
     24    2 S    16     22.050000      3.637310      4.661700   6.0000  32.0650
     28    1 Mo   42     -1.575000      4.546630      3.075000  14.0000  95.9600
     29    2 S    16     -1.575000      6.365290      1.488300   6.0000  32.0650
     30    2 S    16     -1.575000      6.365290      4.661700   6.0000  32.0650
     31    1 Mo   42      1.575000      4.546630      3.075000  14.0000  95.9600
     32    2 S    16      1.575000      6.365290      1.488300   6.0000  32.0650
     33    2 S    16      1.575000      6.365290      4.661700   6.0000  32.0650
     34    1 Mo   42      4.725000      4.546630      3.075000  14.0000  95.9600
     35    2 S    16      4.725000      6.365290      1.488300   6.0000  32.0650
     36    2 S    16      4.725000      6.365290      4.661700   6.0000  32.0650
     37    1 Mo   42      7.875000      4.546630      3.075000  14.0000  95.9600
     38    2 S    16      7.875000      6.365290      1.488300   6.0000  32.0650
     39    2 S    16      7.875000      6.365290      4.661700   6.0000  32.0650
     40    1 Mo   42     11.025000      4.546630      3.075000  14.0000  95.9600
     41    2 S    16     11.025000      6.365290      1.488300   6.0000  32.0650
     42    2 S    16     11.025000      6.365290      4.661700   6.0000  32.0650
     43    1 Mo   42     14.175000      4.546630      3.075000  14.0000  95.9600
     44    2 S    16     14.175000      6.365290      1.488300   6.0000  32.0650
     45    2 S    16     14.175000      6.365290      4.661700   6.0000  32.0650
     46    1 Mo   42     17.325000      4.546630      3.075000  14.0000  95.9600
     47    2 S    16     17.325000      6.365290      1.488300   6.0000  32.0650
     48    2 S    16     17.325000      6.365290      4.661700   6.0000  32.0650
     49    1 Mo   42     20.475000      4.546630      3.075000  14.0000  95.9600
     50    2 S    16     20.475000      6.365290      1.488300   6.0000  32.0650
     51    2 S    16     20.475000      6.365290      4.661700   6.0000  32.0650
     52    1 Mo   42     23.625000      4.546630      3.075000  14.0000  95.9600
     53    2 S    16     23.625000      6.365290      1.488300   6.0000  32.0650
     54    2 S    16     23.625000      6.365290      4.661700   6.0000  32.0650
     55    1 Mo   42     -3.150000      7.274610      3.075000  14.0000  95.9600
     56    2 S    16     -3.150000      9.093270      1.488300   6.0000  32.0650
     57    2 S    16     -3.150000      9.093270      4.661700   6.0000  32.0650
     61    1 Mo   42      3.150000      7.274610      3.075000  14.0000  95.9600
     62    2 S    16      3.150000      9.093270      1.488300   6.0000  32.0650
     63    2 S    16      3.150000      9.093270      4.661700   6.0000  32.0650
     67    1 Mo   42      9.450000      7.274610      3.075000  14.0000  95.9600
     68    2 S    16      9.450000      9.093270      1.488300   6.0000  32.0650
     69    2 S    16      9.450000      9.093270      4.661700   6.0000  32.0650
     73    1 Mo   42     15.750000      7.274610      3.075000  14.0000  95.9600
     74    2 S    16     15.750000      9.093270      1.488300   6.0000  32.0650
     75    2 S    16     15.750000      9.093270      4.661700   6.0000  32.0650
     79    1 Mo   42     22.050000      7.274610      3.075000  14.0000  95.9600
     80    2 S    16     22.050000      9.093270      1.488300   6.0000  32.0650
     81    2 S    16     22.050000      9.093270      4.661700   6.0000  32.0650
     82    1 Mo   42     -4.725000     10.002590      3.075000  14.0000  95.9600
     83    2 S    16     -4.725000     11.821250      1.488300   6.0000  32.0650
     84    2 S    16     -4.725000     11.821250      4.661700   6.0000  32.0650
     85    1 Mo   42     -1.575000     10.002590      3.075000  14.0000  95.9600
     86    2 S    16     -1.575000     11.821250      1.488300   6.0000  32.0650
     87    2 S    16     -1.575000     11.821250      4.661700   6.0000  32.0650
     88    1 Mo   42      1.575000     10.002590      3.075000  14.0000  95.9600
     89    2 S    16      1.575000     11.821250      1.488300   6.0000  32.0650
     90    2 S    16      1.575000     11.821250      4.661700   6.0000  32.0650
     91    1 Mo   42      4.725000     10.002590      3.075000  14.0000  95.9600
     92    2 S    16      4.725000     11.821250      1.488300   6.0000  32.0650
     93    2 S    16      4.725000     11.821250      4.661700   6.0000  32.0650
     94    1 Mo   42      7.875000     10.002590      3.075000  14.0000  95.9600
     95    2 S    16      7.875000     11.821250      1.488300   6.0000  32.0650
     96    2 S    16      7.875000     11.821250      4.661700   6.0000  32.0650
     97    1 Mo   42     11.025000     10.002590      3.075000  14.0000  95.9600
     98    2 S    16     11.025000     11.821250      1.488300   6.0000  32.0650
     99    2 S    16     11.025000     11.821250      4.661700   6.0000  32.0650
    100    1 Mo   42     14.175000     10.002590      3.075000  14.0000  95.9600
    101    2 S    16     14.175000     11.821250      1.488300   6.0000  32.0650
    102    2 S    16     14.175000     11.821250      4.661700   6.0000  32.0650
    103    1 Mo   42     17.325000     10.002590      3.075000  14.0000  95.9600
    104    2 S    16     17.325000     11.821250      1.488300   6.0000  32.0650
    105    2 S    16     17.325000     11.821250      4.661700   6.0000  32.0650
    106    1 Mo   42     20.475000     10.002590      3.075000  14.0000  95.9600
    107    2 S    16     20.475000     11.821250      1.488300   6.0000  32.0650
    108    2 S    16     20.475000     11.821250      4.661700   6.0000  32.0650
    112    1 Mo   42     -3.150000     12.730570      3.075000  14.0000  95.9600
    113    2 S    16     -3.150000     14.549230      1.488300   6.0000  32.0650
    114    2 S    16     -3.150000     14.549230      4.661700   6.0000  32.0650
    118    1 Mo   42      3.150000     12.730570      3.075000  14.0000  95.9600
    119    2 S    16      3.150000     14.549230      1.488300   6.0000  32.0650
    120    2 S    16      3.150000     14.549230      4.661700   6.0000  32.0650
    124    1 Mo   42      9.450000     12.730570      3.075000  14.0000  95.9600
    125    2 S    16      9.450000     14.549230      1.488300   6.0000  32.0650
    126    2 S    16      9.450000     14.549230      4.661700   6.0000  32.0650
    130    1 Mo   42     15.750000     12.730570      3.075000  14.0000  95.9600
    131    2 S    16     15.750000     14.549230      1.488300   6.0000  32.0650
    132    2 S    16     15.750000     14.549230      4.661700   6.0000  32.0650
    136    1 Mo   42     -7.875000     15.458550      3.075000  14.0000  95.9600
    137    2 S    16     -7.875000     17.277210      1.488300   6.0000  32.0650
    138    2 S    16     -7.875000     17.277210      4.661700   6.0000  32.0650
    139    1 Mo   42     -4.725000     15.458550      3.075000  14.0000  95.9600
    140    2 S    16     -4.725000     17.277210      1.488300   6.0000  32.0650
    141    2 S    16     -4.725000     17.277210      4.661700   6.0000  32.0650
    142    1 Mo   42     -1.575000     15.458550      3.075000  14.0000  95.9600
    143    2 S    16     -1.575000     17.277210      1.488300   6.0000  32.0650
    144    2 S    16     -1.575000     17.277210      4.661700   6.0000  32.0650
    145    1 Mo   42      1.575000     15.458550      3.075000  14.0000  95.9600
    146    2 S    16      1.575000     17.277210      1.488300   6.0000  32.0650
    147    2 S    16      1.575000     17.277210      4.661700   6.0000  32.0650
    148    1 Mo   42      4.725000     15.458550      3.075000  14.0000  95.9600
    149    2 S    16      4.725000     17.277210      1.488300   6.0000  32.0650
    150    2 S    16      4.725000     17.277210      4.661700   6.0000  32.0650
    151    1 Mo   42      7.875000     15.458550      3.075000  14.0000  95.9600
    152    2 S    16      7.875000     17.277210      1.488300   6.0000  32.0650
    153    2 S    16      7.875000     17.277210      4.661700   6.0000  32.0650
    154    1 Mo   42     11.025000     15.458550      3.075000  14.0000  95.9600
    155    2 S    16     11.025000     17.277210      1.488300   6.0000  32.0650
    156    2 S    16     11.025000     17.277210      4.661700   6.0000  32.0650
    157    1 Mo   42     14.175000     15.458550      3.075000  14.0000  95.9600
    158    2 S    16     14.175000     17.277210      1.488300   6.0000  32.0650
    159    2 S    16     14.175000     17.277210      4.661700   6.0000  32.0650
    160    1 Mo   42     17.325000     15.458550      3.075000  14.0000  95.9600
    161    2 S    16     17.325000     17.277210      1.488300   6.0000  32.0650
    162    2 S    16     17.325000     17.277210      4.661700   6.0000  32.0650
    163    1 Mo   42     -9.450000     18.186530      3.075000  14.0000  95.9600
    164    2 S    16     -9.450000     20.005190      1.488300   6.0000  32.0650
    165    2 S    16     -9.450000     20.005190      4.661700   6.0000  32.0650
    169    1 Mo   42     -3.150000     18.186530      3.075000  14.0000  95.9600
    170    2 S    16     -3.150000     20.005190      1.488300   6.0000  32.0650
    171    2 S    16     -3.150000     20.005190      4.661700   6.0000  32.0650
    175    1 Mo   42      3.150000     18.186530      3.075000  14.0000  95.9600
    176    2 S    16      3.150000     20.005190      1.488300   6.0000  32.0650
    177    2 S    16      3.150000     20.005190      4.661700   6.0000  32.0650
    181    1 Mo   42      9.450000     18.186530      3.075000  14.0000  95.9600
    182    2 S    16      9.450000     20.005190      1.488300   6.0000  32.0650
    183    2 S    16      9.450000     20.005190      4.661700   6.0000  32.0650
    187    1 Mo   42     15.750000     18.186530      3.075000  14.0000  95.9600
    188    2 S    16     15.750000     20.005190      1.488300   6.0000  32.0650
    189    2 S    16     15.750000     20.005190      4.661700   6.0000  32.0650
    190    1 Mo   42    -11.025000     20.914510      3.075000  14.0000  95.9600
    191    2 S    16    -11.025000     22.733170      1.488300   6.0000  32.0650
    192    2 S    16    -11.025000     22.733170      4.661700   6.0000  32.0650
    193    1 Mo   42     -7.875000     20.914510      3.075000  14.0000  95.9600
    194    2 S    16     -7.875000     22.733170      1.488300   6.0000  32.0650
    195    2 S    16     -7.875000     22.733170      4.661700   6.0000  32.0650
    196    1 Mo   42     -4.725000     20.914510      3.075000  14.0000  95.9600
    197    2 S    16     -4.725000     22.733170      1.488300   6.0000  32.0650
    198    2 S    16     -4.725000     22.733170      4.661700   6.0000  32.0650
    199    1 Mo   42     -1.575000     20.914510      3.075000  14.0000  95.9600
    200    2 S    16     -1.575000     22.733170      1.488300   6.0000  32.0650
    201    2 S    16     -1.575000     22.733170      4.661700   6.0000  32.0650
    202    1 Mo   42      1.575000     20.914510      3.075000  14.0000  95.9600
    203    2 S    16      1.575000     22.733170      1.488300   6.0000  32.0650
    204    2 S    16      1.575000     22.733170      4.661700   6.0000  32.0650
    205    1 Mo   42      4.725000     20.914510      3.075000  14.0000  95.9600
    206    2 S    16      4.725000     22.733170      1.488300   6.0000  32.0650
    207    2 S    16      4.725000     22.733170      4.661700   6.0000  32.0650
    208    1 Mo   42      7.875000     20.914510      3.075000  14.0000  95.9600
    209    2 S    16      7.875000     22.733170      1.488300   6.0000  32.0650
    210    2 S    16      7.875000     22.733170      4.661700   6.0000  32.0650
    211    1 Mo   42     11.025000     20.914510      3.075000  14.0000  95.9600
    212    2 S    16     11.025000     22.733170      1.488300   6.0000  32.0650
    213    2 S    16     11.025000     22.733170      4.661700   6.0000  32.0650
    214    1 Mo   42     14.175000     20.914510      3.075000  14.0000  95.9600
    215    2 S    16     14.175000     22.733170      1.488300   6.0000  32.0650
    216    2 S    16     14.175000     22.733170      4.661700   6.0000  32.0650
    220    1 Mo   42     -9.450000     23.642490      3.075000  14.0000  95.9600
    221    2 S    16     -9.450000     25.461150      1.488300   6.0000  32.0650
    222    2 S    16     -9.450000     25.461150      4.661700   6.0000  32.0650
    226    1 Mo   42     -3.150000     23.642490      3.075000  14.0000  95.9600
    227    2 S    16     -3.150000     25.461150      1.488300   6.0000  32.0650
    228    2 S    16     -3.150000     25.461150      4.661700   6.0000  32.0650
    232    1 Mo   42      3.150000     23.642490      3.075000  14.0000  95.9600
    233    2 S    16      3.150000     25.461150      1.488300   6.0000  32.0650
    234    2 S    16      3.150000     25.461150      4.661700   6.0000  32.0650
    238    1 Mo   42      9.450000     23.642490      3.075000  14.0000  95.9600
    239    2 S    16      9.450000     25.461150      1.488300   6.0000  32.0650
    240    2 S    16      9.450000     25.461150      4.661700   6.0000  32.0650



 SCF PARAMETERS         Density guess:                                   RESTART
                        --------------------------------------------------------
                        max_scf:                                             100
                        max_scf_history:                                       0
                        max_diis:                                              4
                        --------------------------------------------------------
                        eps_scf:                                        1.00E-09
                        eps_scf_history:                                0.00E+00
                        eps_diis:                                       1.00E-01
                        eps_eigval:                                     1.00E-05
                        --------------------------------------------------------
                        added MOs                                      4536    0
                        --------------------------------------------------------
                        Mixing method:                            BROYDEN_MIXING
                                                charge density mixing in g-space
                        --------------------------------------------------------
                        No outer SCF
  MB

 PW_GRID| Information for grid number                                          1
 PW_GRID| Grid distributed over                                   396 processors
 PW_GRID| Real space group dimensions                                    18   22
 PW_GRID| the grid is blocked:                                               YES
 PW_GRID| Cutoff [a.u.]                                                    250.0
 PW_GRID| spherical cutoff:                                                   NO
 PW_GRID|   Bounds   1           -192     191                Points:         384
 PW_GRID|   Bounds   2           -192     191                Points:         384
 PW_GRID|   Bounds   3           -108     107                Points:         216
 PW_GRID| Volume element (a.u.^3)  0.2212E-02     Volume (a.u.^3)     70457.0773
 PW_GRID| Grid span                                                    FULLSPACE
 PW_GRID|   Distribution                         Average         Max         Min
 PW_GRID|   G-Vectors                            80430.5       84480       72576
 PW_GRID|   G-Rays                                 209.5         220         189
 PW_GRID|   Real Space Points                    80430.5       84480       72576

 PW_GRID| Information for grid number                                          2
 PW_GRID| Number of the reference grid                                         1
 PW_GRID| Grid distributed over                                   396 processors
 PW_GRID| Real space group dimensions                                    18   22
 PW_GRID| the grid is blocked:                                                NO
 PW_GRID| Cutoff [a.u.]                                                     83.3
 PW_GRID| spherical cutoff:                                                   NO
 PW_GRID|   Bounds   1           -112     112                Points:         225
 PW_GRID|   Bounds   2           -112     112                Points:         225
 PW_GRID|   Bounds   3            -60      59                Points:         120
 PW_GRID| Volume element (a.u.^3)  0.1160E-01     Volume (a.u.^3)     70457.0773
 PW_GRID| Grid span                                                    FULLSPACE
 PW_GRID|   Distribution                         Average         Max         Min
 PW_GRID|   G-Vectors                            15340.9       49500           0
 PW_GRID|   G-Rays                                  68.2         220           0
 PW_GRID|   Real Space Points                    15340.9       17160       14400

 PW_GRID| Information for grid number                                          3
 PW_GRID| Number of the reference grid                                         1
 PW_GRID| Grid distributed over                                   396 processors
 PW_GRID| Real space group dimensions                                    18   22
 PW_GRID| the grid is blocked:                                                NO
 PW_GRID| Cutoff [a.u.]                                                     27.8
 PW_GRID| spherical cutoff:                                                   NO
 PW_GRID|   Bounds   1            -64      63                Points:         128
 PW_GRID|   Bounds   2            -64      63                Points:         128
 PW_GRID|   Bounds   3            -36      35                Points:          72
 PW_GRID| Volume element (a.u.^3)  0.5973E-01     Volume (a.u.^3)     70457.0773
 PW_GRID| Grid span                                                    FULLSPACE
 PW_GRID|   Distribution                         Average         Max         Min
 PW_GRID|   G-Vectors                             2978.9       28160           0
 PW_GRID|   G-Rays                                  23.3         220           0
 PW_GRID|   Real Space Points                     2978.9        3456        2520

 PW_GRID| Information for grid number                                          4
[...]
  1109 ( vir )             1.946          -3.679           4.599           2.866
  1110 ( vir )             1.953          -3.762           4.712           2.903
  1111 ( vir )             1.953          -3.762           4.712           2.903
  1112 ( vir )             1.963          -3.478           4.233           2.718
  1113 ( vir )             1.963          -3.478           4.233           2.719
  1114 ( vir )             1.966          -3.877           4.853           2.942
  1115 ( vir )             1.966          -3.876           4.853           2.943
  1116 ( vir )             1.967          -3.890           4.866           2.944
  1117 ( vir )             1.967          -3.890           4.866           2.944
  1118 ( vir )             1.996          -3.808           4.755           2.943
  1119 ( vir )             1.996          -3.806           4.755           2.945
  1120 ( vir )             1.997          -3.913           4.895           2.979
  1121 ( vir )             1.997          -3.912           4.895           2.980
  1122 ( vir )             2.012          -3.617           4.461           2.856
  1123 ( vir )             2.012          -3.617           4.461           2.856
  1124 ( vir )             2.014          -3.877           4.842           2.979
  1125 ( vir )             2.014          -3.875           4.842           2.981
  1126 ( vir )             2.041          -4.003           5.005           3.043
  1127 ( vir )             2.041          -4.001           5.005           3.045
  1128 ( vir )             2.052          -3.501           4.236           2.787
  1129 ( vir )             2.052          -3.500           4.236           2.788
  1130 ( vir )             2.052          -4.104           5.137           3.085
  1131 ( vir )             2.053          -4.058           5.076           3.071
  1132 ( vir )             2.053          -4.056           5.075           3.073
  1133 ( vir )             2.063          -3.775           4.657           2.946
  1134 ( vir )             2.063          -3.774           4.657           2.946
  1135 ( vir )             2.076          -3.672           4.510           2.914
  1136 ( vir )             2.076          -3.670           4.510           2.916
  1137 ( vir )             2.112          -3.661           4.481           2.933
  1138 ( vir )             2.112          -3.659           4.481           2.934
  1139 ( vir )             2.114          -3.895           4.805           3.024
  1140 ( vir )             2.114          -3.895           4.805           3.025
  1141 ( vir )             2.144          -3.700           4.522           2.966
  1142 ( vir )             2.144          -3.699           4.522           2.967
  1143 ( vir )             2.151          -3.755           4.594           2.990
  1144 ( vir )             2.151          -3.754           4.594           2.991
  1145 ( vir )             2.174          -4.023           4.961           3.113
  1146 ( vir )             2.174          -4.022           4.961           3.113
  1147 ( vir )             2.174          -3.602           4.381           2.954
  1148 ( vir )             2.174          -3.601           4.381           2.954
  1149 ( vir )             2.178          -3.880           4.758           3.056
  1150 ( vir )             2.192          -4.051           4.996           3.138
  1151 ( vir )             2.192          -4.051           4.997           3.138
  1152 ( vir )             2.196          -4.024           4.962           3.134
  1153 ( vir )             2.196          -4.025           4.962           3.134
  1154 ( vir )             2.212          -3.746           4.703           3.169
  1155 ( vir )             2.212          -3.745           4.703           3.170
  1156 ( vir )             2.218          -3.774           4.748           3.191
  1157 ( vir )             2.218          -3.774           4.748           3.192
  1158 ( vir )             2.221          -3.990           4.895           3.126
  1159 ( vir )             2.225          -4.071           5.008           3.162
  1160 ( vir )             2.225          -4.071           5.008           3.162
  1161 ( vir )             2.238          -3.573           4.320           2.986
  1162 ( vir )             2.238          -3.572           4.320           2.986
  1163 ( vir )             2.243          -3.926           4.974           3.291
  1164 ( vir )             2.243          -3.926           4.973           3.290
  1165 ( vir )             2.245          -3.564           4.267           2.948
  1166 ( vir )             2.256          -3.836           4.837           3.256
  1167 ( vir )             2.256          -3.835           4.836           3.257
  1168 ( vir )             2.272          -3.914           4.949           3.307
  1169 ( vir )             2.272          -3.803           4.783           3.253
  1170 ( vir )             2.272          -3.914           4.949           3.307
  1171 ( vir )             2.272          -3.803           4.784           3.253
  1172 ( vir )             2.279          -3.702           4.620           3.197
  1173 ( vir )             2.282          -4.154           5.103           3.231
  1174 ( vir )             2.282          -4.154           5.103           3.231
  1175 ( vir )             2.284          -3.876           4.891           3.298
  1176 ( vir )             2.284          -3.875           4.891           3.299
  1177 ( vir )             2.288          -4.133           5.070           3.225
  1178 ( vir )             2.288          -4.133           5.070           3.225
  1179 ( vir )             2.305          -3.968           5.027           3.364
  1180 ( vir )             2.306          -4.168           5.120           3.257
  1181 ( vir )             2.306          -4.167           5.120           3.259
  1182 ( vir )             2.309          -4.183           5.132           3.258
  1183 ( vir )             2.309          -4.182           5.132           3.259
  1184 ( vir )             2.316          -3.565           4.283           3.034
  1185 ( vir )             2.316          -3.565           4.283           3.033
  1186 ( vir )             2.349          -3.679           4.568           3.237
  1187 ( vir )             2.349          -3.583           4.295           3.060
  1188 ( vir )             2.349          -3.584           4.295           3.060
  1189 ( vir )             2.377          -4.308           5.285           3.354
  1190 ( vir )             2.377          -4.308           5.285           3.354
  1191 ( vir )             2.378          -3.998           5.061           3.441
  1192 ( vir )             2.396          -4.262           5.219           3.353
  1193 ( vir )             2.396          -4.260           5.219           3.355
  1194 ( vir )             2.396          -3.615           4.294           3.076
  1195 ( vir )             2.400          -3.599           4.296           3.097
  1196 ( vir )             2.400          -3.599           4.296           3.097
  1197 ( vir )             2.422          -3.944           4.963           3.441
  1198 ( vir )             2.422          -3.944           4.963           3.441
  1199 ( vir )             2.429          -3.665           4.525           3.290
  1200 ( vir )             2.429          -3.664           4.525           3.290
  1201 ( vir )             2.447          -4.391           5.384           3.440
  1202 ( vir )             2.447          -4.391           5.384           3.440
  1203 ( vir )             2.490          -4.033           5.092           3.549
  1204 ( vir )             2.490          -4.032           5.092           3.550
  1205 ( vir )             2.498          -4.336           5.290           3.452
  1206 ( vir )             2.498          -4.339           5.290           3.449
  1207 ( vir )             2.506          -4.357           5.325           3.473
  1208 ( vir )             2.506          -4.358           5.325           3.473
  1209 ( vir )             2.507          -3.633           4.302           3.177
  1210 ( vir )             2.513          -4.343           5.289           3.459
  1211 ( vir )             2.521          -4.352           5.301           3.470
  1212 ( vir )             2.521          -4.355           5.301           3.467
  1213 ( vir )             2.549          -3.668           4.325           3.206
  1214 ( vir )             2.549          -3.668           4.325           3.206
  1215 ( vir )             2.556          -4.422           5.408           3.543
  1216 ( vir )             2.556          -4.422           5.408           3.542
  1217 ( vir )             2.565          -3.994           5.005           3.576
  1218 ( vir )             2.565          -3.994           5.005           3.577
  1219 ( vir )             2.566          -4.391           5.362           3.537
  1220 ( vir )             2.566          -4.392           5.362           3.537
  1221 ( vir )             2.574          -4.439           5.428           3.563
  1222 ( vir )             2.574          -4.440           5.428           3.563
  1223 ( vir )             2.581          -4.054           5.103           3.630
  1224 ( vir )             2.581          -4.053           5.103           3.631
  1225 ( vir )             2.581          -3.662           4.316           3.235
  1226 ( vir )             2.598          -4.414           5.389           3.573
  1227 ( vir )             2.598          -4.414           5.389           3.572
  1228 ( vir )             2.601          -3.719           4.555           3.436
  1229 ( vir )             2.601          -3.719           4.555           3.437
  1230 ( vir )             2.624          -3.957           5.010           3.677
  1231 ( vir )             2.624          -3.956           5.010           3.679
  1232 ( vir )             2.640          -3.960           5.011           3.691
  1233 ( vir )             2.640          -3.959           5.011           3.693
  1234 ( vir )             2.643          -4.441           5.418           3.621
  1235 ( vir )             2.643          -4.441           5.418           3.620
  1236 ( vir )             2.647          -3.693           4.335           3.289
  1237 ( vir )             2.647          -3.693           4.335           3.289
  1238 ( vir )             2.653          -3.978           5.030           3.705
  1239 ( vir )             2.678          -4.002           5.051           3.727
  1240 ( vir )             2.701          -4.036           5.081           3.747
  1241 ( vir )             2.701          -4.034           5.081           3.748
  1242 ( vir )             2.704          -3.789           4.628           3.543
  1243 ( vir )             2.717          -4.419           5.371           3.668
  1244 ( vir )             2.717          -4.421           5.371           3.667
  1245 ( vir )             2.731          -4.048           5.050           3.732
  1246 ( vir )             2.731          -4.047           5.049           3.733
  1247 ( vir )             2.732          -4.087           5.124           3.770
  1248 ( vir )             2.732          -4.087           5.124           3.770
  1249 ( vir )             2.737          -3.996           5.037           3.778
  1250 ( vir )             2.741          -4.090           5.119           3.769
  1251 ( vir )             2.741          -4.090           5.119           3.769
  1252 ( vir )             2.745          -4.058           5.098           3.785
  1253 ( vir )             2.745          -4.057           5.098           3.786
   
  GW direct gap at current kpoint (eV)                                     2.596
  
   
  SCF valence band maximum (eV)                                           -0.334
  SCF conduction band minimum (eV)                                         1.502
  SCF bandgap (eV)                                                         1.836
   
  GW valence band maximum (eV)                                            -0.092
  GW conduction band minimum (eV)                                          2.381
  GW bandgap (eV)                                                          2.473
 
  Total RI-RPA Time=                                                12347.102583
 
 ENERGY| Total FORCE_EVAL ( QS ) energy [a.u.]:            -7193.115574507344718

 -------------------------------------------------------------------------------
 -                                                                             -
 -                                T I M I N G                                  -
 -                                                                             -
 -------------------------------------------------------------------------------
 SUBROUTINE                       CALLS  ASD         SELF TIME        TOTAL TIME
                                MAXIMUM       AVERAGE  MAXIMUM  AVERAGE  MAXIMUM
 CP2K                                 1  1.0     0.10     0.12 12670.27 12670.44
 qs_energies                          1  2.0     0.00     0.01 12666.22 12666.42
 mp2_main                             1  3.0     0.00     0.00 12351.11 12351.30
 mp2_gpw_main                         1  4.0     0.01     0.02 12347.00 12347.20
 rpa_ri_compute_en                    1  5.0     0.00     0.00 11341.98 11342.16
 rpa_num_int                          1  6.0     0.00     0.02 10982.95 10983.14
 dbt_total                         1907  9.8     0.01     0.35  6199.84  6199.93
 dbt_contract                       765 11.0     0.04     1.07  5588.14  5588.96
 dbt_tas_total                     1206 13.4   177.97   209.83  5491.00  5491.07
 dbt_tas_multiply                  1065 12.8     0.00     0.21  5473.78  5473.86
 compute_QP_energies                  1  7.0     0.00     0.01  5045.05  5045.12
 compute_self_energy_cubic_gw_k       1  8.0     0.22     0.46  5044.78  5044.98
 rpa_num_int_RPA_matrix_operati      10  7.0     0.00     0.00  4089.80  4089.91
 invert_eps_compute_W_and_Erpa_      10  8.0     0.00     0.05  4089.70  4089.79
 dbt_tas_dbm                       1065 14.8     0.00     0.15  3935.72  3935.79
 dbm_multiply                      1065 16.8  3194.70  3537.88  3194.70  3537.88
 compute_Q_kp_RPA                   260  9.0     0.50     0.71  2967.94  2968.87
 cp_cfm_power                       312  9.7     0.42     0.69  2906.71  2907.21
 cp_cfm_heevd                       441 10.2  2840.03  2841.62  2840.03  2841.62
 tensor_operation_3c_W               99  9.0     0.00     0.03  2260.63  2264.77
 contract_to_self_energy            198  9.0     0.01     0.24  2186.31  2189.54
 compute_mat_P_omega                  1  7.0     0.00     0.02  1844.92  1845.02
 compute_mat_P_omega_contract        10  8.0     5.83     6.88  1825.48  1825.81
 parallel_gemm_cfm                 4194 10.2     0.02     1.52  1679.17  1688.10
 parallel_gemm_cfm_cosma           4194 11.2  1679.15  1688.09  1679.15  1688.09
 dbt_tas_mm_3N                      198 16.5     0.00     0.06  1521.53  1672.25
 mp_sync                           9706 12.6  1179.19  1461.40  1179.19  1461.40
 dbt_tas_mm_2                       289 15.0     0.00     0.11  1176.82  1176.84
 mp2_ri_gpw_compute_in                1  5.0     0.02     0.02  1005.00  1005.02
 compute_Wc_real_space_tau_GW       260  9.0     0.00     0.06   951.64   953.74
 get_2c_integrals                     1  6.0     0.00     0.00   911.41   911.42
 compute_mat_P_omega_calc_P_t        90  9.0     0.00     0.02   633.28   633.29
 dbt_tas_replicate                  927 15.0    24.93   286.46   433.49   598.88
 trafo_to_mo_and_kpoints             21  9.0     0.20     1.19   552.63   553.09
 mp_waitall_2                      5552 16.8   367.44   552.60   367.44   552.60
 dbt_copy                           947 10.8     0.04     0.36   478.48   532.27
 dbt_reshape                        927 11.8    87.17   138.26   473.36   527.14
 inversion_of_M_and_mult_with_c       1  7.0     0.00     0.03   505.59   505.60
 dbt_tas_mm_3T                      396 16.5     0.00     0.10   428.19   503.33
 compute_mat_P_omega_calc_M_occ      90  9.0     5.69     6.75   491.39   491.39
 compute_Wc_real_space_tau_GW_3     260 10.0     0.00     0.04   467.99   472.72
 dbm_redistribute                  1794 15.7   361.85   455.43   361.85   455.43
 convert_to_new_pgrid              3195 14.8    49.14    91.13   337.86   392.74
 dbt_tas_mm_1N                      182 15.0     0.00     0.06   312.70   391.49
 dbt_communicate_buffer             927 12.8     0.23    18.31   361.24   390.96
 get_bandstruc_and_k_dependent_       1  6.0     0.00     0.00   359.02   359.06
 create_kp_and_calc_kp_orbitals       3  7.0     0.01     0.08   359.02   359.06
 compute_V_by_lattice_sum             1  7.0     0.00     0.02   347.20   347.21
 mp_alltoall_i22                  15475 12.6   220.82   345.29   220.82   345.29
 build_2c_coulomb_matrix_kp           2  8.0     0.00     0.00   280.40   344.61
 lattice_sum                          2  9.0    10.06    12.41   280.40   344.60
 cp_cfm_geeig                       129  8.0     0.01     0.12   329.55   332.85
 compute_v_transl                 13312 10.0   269.38   331.55   270.20   332.76
 compute_mat_P_omega_calc_M_vir      90  9.0     0.00     0.01   325.89   325.90
 mp_alltoall_i                     3712 15.1   299.95   316.89   299.95   316.89
 scf_env_do_scf                       1  3.0     0.00     0.00   310.62   311.12
 scf_env_do_scf_inner_loop           55  4.0     0.00     0.04   310.62   311.12
 dbt_tas_replicate_alltoall         717 16.3     0.00     0.04   290.44   304.34
 dbt_tas_communicate_buffer        1854 17.3     0.33    28.21   145.95   302.61
 copy_dbcsr_to_fm                  3888 10.4     0.08     2.42   181.02   298.86
 dbt_tas_estimate_result_nze        300 14.0     4.59     5.33   276.44   276.44
 dbt_tas_replicate_communicate_     717 16.3     0.06     0.15   109.60   270.95
 mp_cart_rank                   ******* 16.3     2.27   254.41     2.27   254.41
 compute_Wc_real_space_tau_GW_2     260 10.0     0.16     0.22   245.93   248.05
 dbcsr_desymmetrize_deep           3948 11.4     2.41     6.38   127.56   246.48
 cp_cfm_cholesky_invert             260 11.0   237.42   238.15   237.42   238.15
 compute_Wc_real_space_tau_GW_4     260 10.0     3.94   116.07     9.76   231.86
 cp_fm_copy_general                 675 10.1     0.00     0.13   227.58   229.87
 compute_Wc_real_space_tau_GW_5     260 10.0     0.01     0.11   225.82   228.83
 cp_fm_start_copy_general           675 11.1     0.98     1.82   226.44   228.76
 mp_allgather_i                    1350 12.1   224.28   226.69   224.28   226.69
 mp_isend_im2                    106901 13.7   120.07   203.27   120.07   203.27
 real_space_to_kpoint_transform      37  9.8     5.86    10.83   153.18   153.49
 dbcsr_new_transposed              7504 10.8     1.50     4.12   145.34   148.50
 dbcsr_redistribute                7448 11.9     4.24    18.51   143.67   147.22
 compute_mat_P_omega_copy_M_vir      90  9.0     0.00     0.03   136.63   137.92
 mp_sum_l                          6747 13.9   104.95   131.87   104.95   131.87
 -------------------------------------------------------------------------------

 The number of warnings for this run is : 3
 
 -------------------------------------------------------------------------------
  **** **** ******  **  PROGRAM ENDED AT                 2023-03-05 13:58:05.282
 ***** ** ***  *** **   PROGRAM RAN ON                          f1108.nhr.fau.de
 **    ****   ******    PROGRAM RAN BY                                  b165da10
 ***** **    ** ** **   PROGRAM PROCESS ID                               2019699
  **** **  *******  **  PROGRAM STOPPED IN /home/atuin/b165da/b165da10/17_MoS2_f
                                           ritz/09x09/1_reg_RI_1e-2
