 DBCSR| CPU Multiplication driver                                           XSMM (U)
 DBCSR| Multrec recursion limit                                              512 (U)
 DBCSR| Multiplication stack size                                           1000 (D)
 DBCSR| Maximum elements for images                                    UNLIMITED (U)
 DBCSR| Multiplicative factor virtual images                                   1 (U)
 DBCSR| Use multiplication densification                                       T (D)
 DBCSR| Multiplication size stacks                                             3 (U)
 DBCSR| Use memory pool for CPU allocation                                     F (U)
 DBCSR| Number of 3D layers                                               SINGLE (U)
 DBCSR| Use MPI memory allocation                                              F (U)
 DBCSR| Use RMA algorithm                                                      F (U)
 DBCSR| Use Communication thread                                               T (U)
 DBCSR| Communication thread load                                             87 (D)
 DBCSR| MPI: My process id                                                     0
 DBCSR| MPI: Number of processes                                             960
 DBCSR| OMP: Current number of threads                                         1
 DBCSR| OMP: Max number of threads                                             1
 DBCSR| Split modifier for TAS multiplication algorithm                  1.0E+00 (U)


  **** **** ******  **  PROGRAM STARTED AT               2023-03-03 17:34:08.804
 ***** ** ***  *** **   PROGRAM STARTED ON                      f0502.nhr.fau.de
 **    ****   ******    PROGRAM STARTED BY                              b165da10
 ***** **    ** ** **   PROGRAM PROCESS ID                               1368425
  **** **  *******  **  PROGRAM STARTED IN /home/atuin/b165da/b165da10/15_WSe2/1
                                           1x11/2_reg_RI_1e-2

 CP2K| version string:                 CP2K version 2023.1 (Development Version)
 CP2K| source code revision number:                                  git:383ec4c
 CP2K| cp2kflags: omp libint fftw3 libxc parallel mpi_f08 scalapack cosma xsmm p
 CP2K|            lumed2 spglib mkl libvdwxc
 CP2K| is freely available from                            https://www.cp2k.org/
 CP2K| Program compiled at                           Fri Feb 3 21:19:19 CET 2023
 CP2K| Program compiled on                                     fritz3.nhr.fau.de
 CP2K| Program compiled for                                                local
 CP2K| Data directory path    /home/atuin/b165da/b165da10/01_CP2K_compilations/0
 CP2K| Input file name                                               GW_WSe2.inp
 
 GLOBAL| Force Environment number                                              1
 GLOBAL| Basis set file name                                        BASIS_MOLOPT
 GLOBAL| Potential file name                                      GTH_POTENTIALS
 GLOBAL| MM Potential file name                                     MM_POTENTIAL
 GLOBAL| Coordinate file name                                      __STD_INPUT__
 GLOBAL| Method name                                                        CP2K
 GLOBAL| Project name                                                       MoS2
 GLOBAL| Run type                                                         ENERGY
 GLOBAL| FFT library                                                       FFTW3
 GLOBAL| Diagonalization library                                       ScaLAPACK
 GLOBAL| DGEMM library                                                      BLAS
 GLOBAL| Orthonormality check for eigenvectors                          DISABLED
 GLOBAL| Matrix multiplication library                                     COSMA
 GLOBAL| All-to-all communication in single precision                          F
 GLOBAL| FFTs using library dependent lengths                                  F
 GLOBAL| Grid backend                                                       AUTO
 GLOBAL| Global print level                                               MEDIUM
 GLOBAL| MPI I/O enabled                                                       T
 GLOBAL| Total number of message passing processes                           960
 GLOBAL| Number of threads for this process                                    1
 GLOBAL| This output is from process                                           0
 GLOBAL| Stack size for threads created by OpenMP (OMP_STACKSIZE)           500m
 GLOBAL| CPU model name            Intel(R) Xeon(R) Platinum 8360Y CPU @ 2.40GHz
 GLOBAL| CPUID                                                              1003

 MEMORY| system memory details [Kb]
 MEMORY|                        rank 0           min           max       average
 MEMORY| MemTotal            263795712     263781464     263797860     263795074
 MEMORY| MemFree             251867380     245890380     255068344     250982420
 MEMORY| Buffers                  1120           284          2816          1974
 MEMORY| Cached                2848556       1671192       2869120       2740868
 MEMORY| Slab                  3185708        769652       9008404       4428574
 MEMORY| SReclaimable           141160        104836        251532        130183
 MEMORY| MemLikelyFree       254858216     248762212     257967988     253855447


 *** Fundamental physical constants (SI units) ***

 *** Literature: B. J. Mohr and B. N. Taylor,
 ***             CODATA recommended values of the fundamental physical
 ***             constants: 2006, Web Version 5.1
 ***             http://physics.nist.gov/constants

 Speed of light in vacuum [m/s]                             2.99792458000000E+08
 Magnetic constant or permeability of vacuum [N/A**2]       1.25663706143592E-06
 Electric constant or permittivity of vacuum [F/m]          8.85418781762039E-12
 Planck constant (h) [J*s]                                  6.62606896000000E-34
 Planck constant (h-bar) [J*s]                              1.05457162825177E-34
 Elementary charge [C]                                      1.60217648700000E-19
 Electron mass [kg]                                         9.10938215000000E-31
 Electron g factor [ ]                                     -2.00231930436220E+00
 Proton mass [kg]                                           1.67262163700000E-27
 Fine-structure constant                                    7.29735253760000E-03
 Rydberg constant [1/m]                                     1.09737315685270E+07
 Avogadro constant [1/mol]                                  6.02214179000000E+23
 Boltzmann constant [J/K]                                   1.38065040000000E-23
 Atomic mass unit [kg]                                      1.66053878200000E-27
 Bohr radius [m]                                            5.29177208590000E-11

 *** Conversion factors ***

 [u] -> [a.u.]                                              1.82288848426455E+03
 [Angstrom] -> [Bohr] = [a.u.]                              1.88972613288564E+00
 [a.u.] = [Bohr] -> [Angstrom]                              5.29177208590000E-01
 [a.u.] -> [s]                                              2.41888432650478E-17
 [a.u.] -> [fs]                                             2.41888432650478E-02
 [a.u.] -> [J]                                              4.35974393937059E-18
 [a.u.] -> [N]                                              8.23872205491840E-08
 [a.u.] -> [K]                                              3.15774647902944E+05
 [a.u.] -> [kJ/mol]                                         2.62549961709828E+03
 [a.u.] -> [kcal/mol]                                       6.27509468713739E+02
 [a.u.] -> [Pa]                                             2.94210107994716E+13
 [a.u.] -> [bar]                                            2.94210107994716E+08
 [a.u.] -> [atm]                                            2.90362800883016E+08
 [a.u.] -> [eV]                                             2.72113838565563E+01
 [a.u.] -> [Hz]                                             6.57968392072181E+15
 [a.u.] -> [1/cm] (wave numbers)                            2.19474631370540E+05
 [a.u./Bohr**2] -> [1/cm]                                   5.14048714338585E+03
 
 natom =           3
 SIZE(atom_info%r, 2) =           0
 natom =           3
 SIZE(atom_info%r, 2) =           0
 natom =           3
 SIZE(atom_info%r, 2) =           0
 natom =           3
 SIZE(atom_info%r, 2) =           0
 natom =           3
 SIZE(atom_info%r, 2) =           0
 natom =           3
 SIZE(atom_info%r, 2) =           0
 natom =           3
 SIZE(atom_info%r, 2) =           0
 natom =           3
 SIZE(atom_info%r, 2) =           0
 natom =           3
 SIZE(atom_info%r, 2) =           0
 natom =           3
 SIZE(atom_info%r, 2) =           0
 natom =           3
 SIZE(atom_info%r, 2) =           0
 natom =           3
 SIZE(atom_info%r, 2) =           0
 natom =           3
 SIZE(atom_info%r, 2) =           0
 natom =           3
 SIZE(atom_info%r, 2) =           0
 natom =           3
 SIZE(atom_info%r, 2) =           0
 natom =           3
 SIZE(atom_info%r, 2) =           0
 natom =           3
 SIZE(atom_info%r, 2) =           0
 natom =           3
 SIZE(atom_info%r, 2) =           0
 natom =           3
 SIZE(atom_info%r, 2) =           0
 natom =           3
 SIZE(atom_info%r, 2) =           0
 natom =           3
 SIZE(atom_info%r, 2) =           0
 natom =           3
 SIZE(atom_info%r, 2) =           0
 natom =           3
 SIZE(atom_info%r, 2) =           0
 natom =           3
 SIZE(atom_info%r, 2) =           0
 natom =           3
 SIZE(atom_info%r, 2) =           0
 natom =           3
 SIZE(atom_info%r, 2) =           0
 natom =           3
 SIZE(atom_info%r, 2) =           0
 natom =           3
 SIZE(atom_info%r, 2) =           0
 natom =           3
 SIZE(atom_info%r, 2) =           0
 natom =           3
 SIZE(atom_info%r, 2) =           0
 natom =           3
 SIZE(atom_info%r, 2) =           0
 natom =           3
 SIZE(atom_info%r, 2) =           0
 natom =           3
 SIZE(atom_info%r, 2) =           0
 natom =           3
 SIZE(atom_info%r, 2) =           0
 natom =           3
 SIZE(atom_info%r, 2) =           0
 natom =           3
 SIZE(atom_info%r, 2) =           0
 natom =           3
 SIZE(atom_info%r, 2) =           0
 natom =           3
 SIZE(atom_info%r, 2) =           0
 natom =           3
 SIZE(atom_info%r, 2) =           0
 natom =           3
 SIZE(atom_info%r, 2) =           0
 natom =           3
 SIZE(atom_info%r, 2) =           0
 natom =           3
 SIZE(atom_info%r, 2) =           0
 natom =           3
 SIZE(atom_info%r, 2) =           0
 natom =           3
 SIZE(atom_info%r, 2) =           0
 natom =           3
 SIZE(atom_info%r, 2) =           0
 natom =           3
 SIZE(atom_info%r, 2) =           0
 natom =           3
 SIZE(atom_info%r, 2) =           0
 natom =           3
 SIZE(atom_info%r, 2) =           0
 natom =           3
 SIZE(atom_info%r, 2) =           0
 natom =           3
 SIZE(atom_info%r, 2) =           0
 natom =           3
 SIZE(atom_info%r, 2) =           0
 natom =           3
 SIZE(atom_info%r, 2) =           0
 natom =           3
 SIZE(atom_info%r, 2) =           0
 natom =           3
 SIZE(atom_info%r, 2) =           0
 natom =           3
 SIZE(atom_info%r, 2) =           0
 natom =           3
 SIZE(atom_info%r, 2) =           0
 natom =           3
 SIZE(atom_info%r, 2) =           0
 natom =           3
 SIZE(atom_info%r, 2) =           0
 natom =           3
 SIZE(atom_info%r, 2) =           0
 natom =           3
 SIZE(atom_info%r, 2) =           0
 natom =           3
 SIZE(atom_info%r, 2) =           0
 natom =           3
 SIZE(atom_info%r, 2) =           0
 natom =           3
 SIZE(atom_info%r, 2) =           0
 natom =           3
 SIZE(atom_info%r, 2) =           0
 natom =           3
 SIZE(atom_info%r, 2) =           0
 natom =           3
 SIZE(atom_info%r, 2) =           0
 natom =           3
 SIZE(atom_info%r, 2) =           0
 natom =           3
 SIZE(atom_info%r, 2) =           0
 natom =           3
 SIZE(atom_info%r, 2) =           0
 natom =           3
 SIZE(atom_info%r, 2) =           0
 natom =           3
 SIZE(atom_info%r, 2) =           0
 natom =           3
 SIZE(atom_info%r, 2) =           0
 natom =           3
 SIZE(atom_info%r, 2) =           0
 natom =           3
 SIZE(atom_info%r, 2) =           0
 natom =           3
 SIZE(atom_info%r, 2) =           0
 natom =           3
 SIZE(atom_info%r, 2) =           0
 natom =           3
 SIZE(atom_info%r, 2) =           0
 natom =           3
 SIZE(atom_info%r, 2) =           0
 natom =           3
 SIZE(atom_info%r, 2) =           0
 natom =           3
 SIZE(atom_info%r, 2) =           0
 natom =           3
 SIZE(atom_info%r, 2) =           0
 natom =           3
 SIZE(atom_info%r, 2) =           0
 natom =           3
 SIZE(atom_info%r, 2) =           0
 natom =           3
 SIZE(atom_info%r, 2) =           0
 natom =           3
 SIZE(atom_info%r, 2) =           0
 natom =           3
 SIZE(atom_info%r, 2) =           0
 natom =           3
 SIZE(atom_info%r, 2) =           0
 natom =           3
 SIZE(atom_info%r, 2) =           0
 natom =           3
 SIZE(atom_info%r, 2) =           0
 natom =           3
 SIZE(atom_info%r, 2) =           0
 natom =           3
 SIZE(atom_info%r, 2) =           0
 natom =           3
 SIZE(atom_info%r, 2) =           0
 natom =           3
 SIZE(atom_info%r, 2) =           0
 natom =           3
 SIZE(atom_info%r, 2) =           0
 natom =           3
 SIZE(atom_info%r, 2) =           0
 natom =           3
 SIZE(atom_info%r, 2) =           0
 natom =           3
 SIZE(atom_info%r, 2) =           0
 natom =           3
 SIZE(atom_info%r, 2) =           0
 natom =           3
 SIZE(atom_info%r, 2) =           0
 natom =           3
 SIZE(atom_info%r, 2) =           0
 natom =           3
 SIZE(atom_info%r, 2) =           0
 natom =           3
 SIZE(atom_info%r, 2) =           0
 natom =           3
 SIZE(atom_info%r, 2) =           0
 natom =           3
 SIZE(atom_info%r, 2) =           0
 natom =           3
 SIZE(atom_info%r, 2) =           0
 natom =           3
 SIZE(atom_info%r, 2) =           0
 natom =           3
 SIZE(atom_info%r, 2) =           0
 natom =           3
 SIZE(atom_info%r, 2) =           0
 natom =           3
 SIZE(atom_info%r, 2) =           0
 natom =           3
 SIZE(atom_info%r, 2) =           0
 natom =           3
 SIZE(atom_info%r, 2) =           0
 natom =           3
 SIZE(atom_info%r, 2) =           0
 natom =           3
 SIZE(atom_info%r, 2) =           0
 natom =           3
 SIZE(atom_info%r, 2) =           0
 natom =           3
 SIZE(atom_info%r, 2) =           0
 natom =           3
 SIZE(atom_info%r, 2) =           0
 natom =           3
 SIZE(atom_info%r, 2) =           0
 natom =           3
 SIZE(atom_info%r, 2) =           0
 natom =           3
 SIZE(atom_info%r, 2) =           0
 natom =           3
 SIZE(atom_info%r, 2) =           0
 natom =           3
 SIZE(atom_info%r, 2) =           0
 natom =           3
 SIZE(atom_info%r, 2) =           0
 natom =           3
 SIZE(atom_info%r, 2) =           0
 natom =           3
 SIZE(atom_info%r, 2) =           0
 natom =           3
 SIZE(atom_info%r, 2) =           0
 natom =           3
 SIZE(atom_info%r, 2) =           0
 natom =           3
 SIZE(atom_info%r, 2) =           0
 natom =           3
 SIZE(atom_info%r, 2) =           0
 natom =           3
 SIZE(atom_info%r, 2) =           0
 natom =           3
 SIZE(atom_info%r, 2) =           0
 natom =           3
 SIZE(atom_info%r, 2) =           0
 natom =           3
 SIZE(atom_info%r, 2) =           0
 natom =           3
 SIZE(atom_info%r, 2) =           0
 natom =           3
 SIZE(atom_info%r, 2) =           0
 natom =           3
 SIZE(atom_info%r, 2) =           0
 natom =           3
 SIZE(atom_info%r, 2) =           0
 natom =           3
 SIZE(atom_info%r, 2) =           0
 natom =           3
 SIZE(atom_info%r, 2) =           0
 natom =           3
 SIZE(atom_info%r, 2) =           0
 natom =           3
 SIZE(atom_info%r, 2) =           0
 natom =           3
 SIZE(atom_info%r, 2) =           0
 natom =           3
 SIZE(atom_info%r, 2) =           0
 natom =           3
 SIZE(atom_info%r, 2) =           0
 natom =           3
 SIZE(atom_info%r, 2) =           0
 natom =           3
 SIZE(atom_info%r, 2) =           0
 natom =           3
 SIZE(atom_info%r, 2) =           0
 natom =           3
 SIZE(atom_info%r, 2) =           0
 natom =           3
 SIZE(atom_info%r, 2) =           0
 natom =           3
 SIZE(atom_info%r, 2) =           0
 natom =           3
 SIZE(atom_info%r, 2) =           0
 natom =           3
 SIZE(atom_info%r, 2) =           0
 natom =           3
 SIZE(atom_info%r, 2) =           0
 natom =           3
 SIZE(atom_info%r, 2) =           0
 natom =           3
 SIZE(atom_info%r, 2) =           0
 natom =           3
 SIZE(atom_info%r, 2) =           0
 natom =           3
 SIZE(atom_info%r, 2) =           0
 natom =           3
 SIZE(atom_info%r, 2) =           0
 natom =           3
 SIZE(atom_info%r, 2) =           0
 natom =           3
 SIZE(atom_info%r, 2) =           0
 natom =           3
 SIZE(atom_info%r, 2) =           0
 natom =           3
 SIZE(atom_info%r, 2) =           0
 natom =           3
 SIZE(atom_info%r, 2) =           0
 natom =           3
 SIZE(atom_info%r, 2) =           0
 natom =           3
 SIZE(atom_info%r, 2) =           0
 natom =           3
 SIZE(atom_info%r, 2) =           0
 natom =           3
 SIZE(atom_info%r, 2) =           0
 natom =           3
 SIZE(atom_info%r, 2) =           0
 natom =           3
 SIZE(atom_info%r, 2) =           0
 natom =           3
 SIZE(atom_info%r, 2) =           0
 natom =           3
 SIZE(atom_info%r, 2) =           0
 natom =           3
 SIZE(atom_info%r, 2) =           0
 natom =           3
 SIZE(atom_info%r, 2) =           0
 natom =           3
 SIZE(atom_info%r, 2) =           0
 natom =           3
 SIZE(atom_info%r, 2) =           0
 natom =           3
 SIZE(atom_info%r, 2) =           0
 natom =           3
 SIZE(atom_info%r, 2) =           0
 natom =           3
 SIZE(atom_info%r, 2) =           0
 natom =           3
 SIZE(atom_info%r, 2) =           0
 natom =           3
 SIZE(atom_info%r, 2) =           0
 natom =           3
 SIZE(atom_info%r, 2) =           0
 natom =           3
 SIZE(atom_info%r, 2) =           0
 natom =           3
 SIZE(atom_info%r, 2) =           0
 natom =           3
 SIZE(atom_info%r, 2) =           0
 natom =           3
 SIZE(atom_info%r, 2) =           0
 natom =           3
 SIZE(atom_info%r, 2) =           0
 natom =           3
 SIZE(atom_info%r, 2) =           0
 natom =           3
 SIZE(atom_info%r, 2) =           0
 natom =           3
 SIZE(atom_info%r, 2) =           0
 natom =           3
 SIZE(atom_info%r, 2) =           0
 natom =           3
 SIZE(atom_info%r, 2) =           0
 natom =           3
 SIZE(atom_info%r, 2) =           0
 natom =           3
 SIZE(atom_info%r, 2) =           0
 natom =           3
 SIZE(atom_info%r, 2) =           0
 natom =           3
 SIZE(atom_info%r, 2) =           0
 natom =           3
 SIZE(atom_info%r, 2) =           0
 natom =           3
 SIZE(atom_info%r, 2) =           0
 natom =           3
 SIZE(atom_info%r, 2) =           0
 natom =           3
 SIZE(atom_info%r, 2) =           0
 natom =           3
 SIZE(atom_info%r, 2) =           0
 natom =           3
 SIZE(atom_info%r, 2) =           0
 natom =           3
 SIZE(atom_info%r, 2) =           0
 natom =           3
 SIZE(atom_info%r, 2) =           0
 natom =           3
 SIZE(atom_info%r, 2) =           0
 natom =           3
 SIZE(atom_info%r, 2) =           0
 natom =           3
 SIZE(atom_info%r, 2) =           0
 natom =           3
 SIZE(atom_info%r, 2) =           0
 natom =           3
 SIZE(atom_info%r, 2) =           0
 natom =           3
 SIZE(atom_info%r, 2) =           0
 natom =           3
 SIZE(atom_info%r, 2) =           0
 natom =           3
 SIZE(atom_info%r, 2) =           0
 natom =           3
 SIZE(atom_info%r, 2) =           0
 natom =           3
 SIZE(atom_info%r, 2) =           0
 natom =           3
 SIZE(atom_info%r, 2) =           0
 natom =           3
 SIZE(atom_info%r, 2) =           0
 natom =           3
 SIZE(atom_info%r, 2) =           0
 natom =           3
 SIZE(atom_info%r, 2) =           0
 natom =           3
 SIZE(atom_info%r, 2) =           0
 natom =           3
 SIZE(atom_info%r, 2) =           0
 natom =           3
 SIZE(atom_info%r, 2) =           0
 natom =           3
 SIZE(atom_info%r, 2) =           0
 natom =           3
 SIZE(atom_info%r, 2) =           0
 natom =           3
 SIZE(atom_info%r, 2) =           0
 natom =           3
 SIZE(atom_info%r, 2) =           0
 natom =           3
 SIZE(atom_info%r, 2) =           0
 natom =           3
 SIZE(atom_info%r, 2) =           0
 natom =           3
 SIZE(atom_info%r, 2) =           0
 natom =           3
 SIZE(atom_info%r, 2) =           0
 natom =           3
 SIZE(atom_info%r, 2) =           0
 natom =           3
 SIZE(atom_info%r, 2) =           0
 natom =           3
 SIZE(atom_info%r, 2) =           0
 natom =           3
 SIZE(atom_info%r, 2) =           0
 natom =           3
 SIZE(atom_info%r, 2) =           0
 natom =           3
 SIZE(atom_info%r, 2) =           0
 natom =           3
 SIZE(atom_info%r, 2) =           0
 natom =           3
 SIZE(atom_info%r, 2) =           0
 natom =           3
 SIZE(atom_info%r, 2) =           0
 natom =           3
 SIZE(atom_info%r, 2) =           0
 natom =           3
 SIZE(atom_info%r, 2) =           0
 natom =           3
 SIZE(atom_info%r, 2) =           0
 natom =           3
 SIZE(atom_info%r, 2) =           0
 natom =           3
 SIZE(atom_info%r, 2) =           0
 natom =           3
 SIZE(atom_info%r, 2) =           0
 natom =           3
 SIZE(atom_info%r, 2) =           0
 natom =           3
 SIZE(atom_info%r, 2) =           0
 natom =           3
 SIZE(atom_info%r, 2) =           0
 natom =           3
 SIZE(atom_info%r, 2) =           0
 natom =           3
 SIZE(atom_info%r, 2) =           0
 natom =           3
 SIZE(atom_info%r, 2) =           0
 natom =           3
 SIZE(atom_info%r, 2) =           0
 natom =           3
 SIZE(atom_info%r, 2) =           0
 natom =           3
 SIZE(atom_info%r, 2) =           0
 natom =           3
 SIZE(atom_info%r, 2) =           0
 natom =           3
 SIZE(atom_info%r, 2) =           0
 natom =           3
 SIZE(atom_info%r, 2) =           0
 natom =           3
 SIZE(atom_info%r, 2) =           0
 natom =           3
 SIZE(atom_info%r, 2) =           0
 natom =           3
 SIZE(atom_info%r, 2) =           0
 natom =           3
 SIZE(atom_info%r, 2) =           0
 natom =           3
 SIZE(atom_info%r, 2) =           0
 natom =           3
 SIZE(atom_info%r, 2) =           0
 natom =           3
 SIZE(atom_info%r, 2) =           0
 natom =           3
 SIZE(atom_info%r, 2) =           0
 natom =           3
 SIZE(atom_info%r, 2) =           0
 natom =           3
 SIZE(atom_info%r, 2) =           0
 natom =           3
 SIZE(atom_info%r, 2) =           0
 natom =           3
 SIZE(atom_info%r, 2) =           0
 natom =           3
 SIZE(atom_info%r, 2) =           0
 natom =           3
 SIZE(atom_info%r, 2) =           0
 natom =           3
 SIZE(atom_info%r, 2) =           0
 natom =           3
 SIZE(atom_info%r, 2) =           0
 natom =           3
 SIZE(atom_info%r, 2) =           0
 natom =           3
 SIZE(atom_info%r, 2) =           0
 natom =           3
 SIZE(atom_info%r, 2) =           0
 natom =           3
 SIZE(atom_info%r, 2) =           0
 natom =           3
 SIZE(atom_info%r, 2) =           0
 natom =           3
 SIZE(atom_info%r, 2) =           0
 natom =           3
 SIZE(atom_info%r, 2) =           0
 natom =           3
 SIZE(atom_info%r, 2) =           0
 natom =           3
 SIZE(atom_info%r, 2) =           0
 natom =           3
 SIZE(atom_info%r, 2) =           0
 natom =           3
 SIZE(atom_info%r, 2) =           0
 natom =           3
 SIZE(atom_info%r, 2) =           0
 natom =           3
 SIZE(atom_info%r, 2) =           0
 natom =           3
 SIZE(atom_info%r, 2) =           0
 natom =           3
 SIZE(atom_info%r, 2) =           0
 natom =           3
 SIZE(atom_info%r, 2) =           0
 natom =           3
 SIZE(atom_info%r, 2) =           0
 natom =           3
 SIZE(atom_info%r, 2) =           0
 natom =           3
 SIZE(atom_info%r, 2) =           0
 natom =           3
 SIZE(atom_info%r, 2) =           0
 natom =           3
 SIZE(atom_info%r, 2) =           0
 natom =           3
 SIZE(atom_info%r, 2) =           0
 natom =           3
 SIZE(atom_info%r, 2) =           0
 natom =           3
 SIZE(atom_info%r, 2) =           0
 natom =           3
 SIZE(atom_info%r, 2) =           0
 natom =           3
 SIZE(atom_info%r, 2) =           0
 natom =           3
 SIZE(atom_info%r, 2) =           0
 natom =           3
 SIZE(atom_info%r, 2) =           0
 natom =           3
 SIZE(atom_info%r, 2) =           0
 natom =           3
 SIZE(atom_info%r, 2) =           0
 natom =           3
 SIZE(atom_info%r, 2) =           0
 natom =           3
 SIZE(atom_info%r, 2) =           0
 natom =           3
 SIZE(atom_info%r, 2) =           0
 natom =           3
 SIZE(atom_info%r, 2) =           0
 natom =           3
 SIZE(atom_info%r, 2) =           0
 natom =           3
 SIZE(atom_info%r, 2) =           0
 natom =           3
 SIZE(atom_info%r, 2) =           0
 natom =           3
 SIZE(atom_info%r, 2) =           0
 natom =           3
 SIZE(atom_info%r, 2) =           0
 natom =           3
 SIZE(atom_info%r, 2) =           0
 natom =           3
 SIZE(atom_info%r, 2) =           0
 natom =           3
 SIZE(atom_info%r, 2) =           0
 natom =           3
 SIZE(atom_info%r, 2) =           0
 natom =           3
 SIZE(atom_info%r, 2) =           0
 natom =           3
 SIZE(atom_info%r, 2) =           0
 natom =           3
 SIZE(atom_info%r, 2) =           0
 natom =           3
 SIZE(atom_info%r, 2) =           0
 natom =           3
 SIZE(atom_info%r, 2) =           0
 natom =           3
 SIZE(atom_info%r, 2) =           0
 natom =           3
 SIZE(atom_info%r, 2) =           0
 natom =           3
 SIZE(atom_info%r, 2) =           0
 natom =           3
 SIZE(atom_info%r, 2) =           0
 natom =           3
 SIZE(atom_info%r, 2) =           0
 natom =           3
 SIZE(atom_info%r, 2) =           0
 natom =           3
 SIZE(atom_info%r, 2) =           0
 natom =           3
 SIZE(atom_info%r, 2) =           0
 natom =           3
 SIZE(atom_info%r, 2) =           0
 natom =           3
 SIZE(atom_info%r, 2) =           0
 natom =           3
 SIZE(atom_info%r, 2) =           0
 natom =           3
 SIZE(atom_info%r, 2) =           0
 natom =           3
 SIZE(atom_info%r, 2) =           0
 natom =           3
 SIZE(atom_info%r, 2) =           0
 natom =           3
 SIZE(atom_info%r, 2) =           0
 natom =           3
 SIZE(atom_info%r, 2) =           0
 natom =           3
 SIZE(atom_info%r, 2) =           0
 natom =           3
 SIZE(atom_info%r, 2) =           0
 natom =           3
 SIZE(atom_info%r, 2) =           0
 natom =           3
 SIZE(atom_info%r, 2) =           0

 CELL_TOP| Volume [angstrom^3]:                                     17314.970895
 CELL_TOP| Vector a [angstrom    36.509     0.000     0.000   |a| =    36.509000
 CELL_TOP| Vector b [angstrom   -18.254    31.618     0.000   |b| =    36.509000
 CELL_TOP| Vector c [angstrom     0.000     0.000    15.000   |c| =    15.000000
 CELL_TOP| Angle (b,c), alpha [degree]:                                90.000000
 CELL_TOP| Angle (a,c), beta  [degree]:                                90.000000
 CELL_TOP| Angle (a,b), gamma [degree]:                               120.000000
 CELL_TOP| Numerically orthorhombic:                                          NO
 CELL_TOP| Periodicity                                                        XY

 CELL_UC| Volume [angstrom^3]:                                        143.098933
 CELL_UC| Vector a [angstrom]     3.319     0.000     0.000   |a| =     3.319000
 CELL_UC| Vector b [angstrom]    -1.659     2.874     0.000   |b| =     3.319000
 CELL_UC| Vector c [angstrom]     0.000     0.000    15.000   |c| =    15.000000
 CELL_UC| Angle (b,c), alpha [degree]:                                 90.000000
 CELL_UC| Angle (a,c), beta  [degree]:                                 90.000000
 CELL_UC| Angle (a,b), gamma [degree]:                                120.000000
 CELL_UC| Numerically orthorhombic:                                           NO
 CELL_UC| Periodicity                                                         XY
 natom =           3
 SIZE(atom_info%r, 2) =           0
 natom =           3
 SIZE(atom_info%r, 2) =           0
 natom =           3
 SIZE(atom_info%r, 2) =           0
 natom =           3
 SIZE(atom_info%r, 2) =           0
 natom =           3
 SIZE(atom_info%r, 2) =           0
 natom =           3
 SIZE(atom_info%r, 2) =           0
 natom =           3
 SIZE(atom_info%r, 2) =           0
 natom =           3
 SIZE(atom_info%r, 2) =           0
 natom =           3
 SIZE(atom_info%r, 2) =           0
 natom =           3
 SIZE(atom_info%r, 2) =           0
 natom =           3
 SIZE(atom_info%r, 2) =           0
 natom =           3
 SIZE(atom_info%r, 2) =           0
 natom =           3
 SIZE(atom_info%r, 2) =           0
 natom =           3
 SIZE(atom_info%r, 2) =           0
 natom =           3
 SIZE(atom_info%r, 2) =           0
 natom =           3
 SIZE(atom_info%r, 2) =           0
 natom =           3
 SIZE(atom_info%r, 2) =           0
 natom =           3
 SIZE(atom_info%r, 2) =           0
 natom =           3
 SIZE(atom_info%r, 2) =           0
 natom =           3
 SIZE(atom_info%r, 2) =           0
 natom =           3
 SIZE(atom_info%r, 2) =           0
 natom =           3
 SIZE(atom_info%r, 2) =           0
 natom =           3
 SIZE(atom_info%r, 2) =           0
 natom =           3
 SIZE(atom_info%r, 2) =           0
 natom =           3
 SIZE(atom_info%r, 2) =           0
 natom =           3
 SIZE(atom_info%r, 2) =           0
 natom =           3
 SIZE(atom_info%r, 2) =           0
 natom =           3
 SIZE(atom_info%r, 2) =           0
 natom =           3
 SIZE(atom_info%r, 2) =           0
 natom =           3
 SIZE(atom_info%r, 2) =           0
 natom =           3
 SIZE(atom_info%r, 2) =           0
 natom =           3
 SIZE(atom_info%r, 2) =           0
 natom =           3
 SIZE(atom_info%r, 2) =           0
 natom =           3
 SIZE(atom_info%r, 2) =           0
 natom =           3
 SIZE(atom_info%r, 2) =           0
 natom =           3
 SIZE(atom_info%r, 2) =           0
 natom =           3
 SIZE(atom_info%r, 2) =           0
 natom =           3
 SIZE(atom_info%r, 2) =           0
 natom =           3
 SIZE(atom_info%r, 2) =           0
 natom =           3
 SIZE(atom_info%r, 2) =           0
 natom =           3
 SIZE(atom_info%r, 2) =           0
 natom =           3
 SIZE(atom_info%r, 2) =           0
 natom =           3
 SIZE(atom_info%r, 2) =           0
 natom =           3
 SIZE(atom_info%r, 2) =           0
 natom =           3
 SIZE(atom_info%r, 2) =           0
 natom =           3
 SIZE(atom_info%r, 2) =           0
 natom =           3
 SIZE(atom_info%r, 2) =           0
 natom =           3
 SIZE(atom_info%r, 2) =           0
 natom =           3
 SIZE(atom_info%r, 2) =           0
 natom =           3
 SIZE(atom_info%r, 2) =           0
 natom =           3
 SIZE(atom_info%r, 2) =           0
 natom =           3
 SIZE(atom_info%r, 2) =           0
 natom =           3
 SIZE(atom_info%r, 2) =           0
 natom =           3
 SIZE(atom_info%r, 2) =           0
 natom =           3
 SIZE(atom_info%r, 2) =           0
 natom =           3
 SIZE(atom_info%r, 2) =           0
 natom =           3
 SIZE(atom_info%r, 2) =           0
 natom =           3
 SIZE(atom_info%r, 2) =           0
 natom =           3
 SIZE(atom_info%r, 2) =           0
 natom =           3
 SIZE(atom_info%r, 2) =           0
 natom =           3
 SIZE(atom_info%r, 2) =           0
 natom =           3
 SIZE(atom_info%r, 2) =           0
 natom =           3
 SIZE(atom_info%r, 2) =           0
 natom =           3
 SIZE(atom_info%r, 2) =           0
 natom =           3
 SIZE(atom_info%r, 2) =           0
 natom =           3
 SIZE(atom_info%r, 2) =           0
 natom =           3
 SIZE(atom_info%r, 2) =           0
 natom =           3
 SIZE(atom_info%r, 2) =           0
 natom =           3
 SIZE(atom_info%r, 2) =           0
 natom =           3
 SIZE(atom_info%r, 2) =           0
 natom =           3
 SIZE(atom_info%r, 2) =           0
 natom =           3
 SIZE(atom_info%r, 2) =           0
 natom =           3
 SIZE(atom_info%r, 2) =           0
 natom =           3
 SIZE(atom_info%r, 2) =           0
 natom =           3
 SIZE(atom_info%r, 2) =           0
 natom =           3
 SIZE(atom_info%r, 2) =           0
 natom =           3
 SIZE(atom_info%r, 2) =           0
 natom =           3
 SIZE(atom_info%r, 2) =           0
 natom =           3
 SIZE(atom_info%r, 2) =           0
 natom =           3
 SIZE(atom_info%r, 2) =           0
 natom =           3
 SIZE(atom_info%r, 2) =           0
 natom =           3
 SIZE(atom_info%r, 2) =           0
 natom =           3
 SIZE(atom_info%r, 2) =           0
 natom =           3
 SIZE(atom_info%r, 2) =           0
 natom =           3
 SIZE(atom_info%r, 2) =           0
 natom =           3
 SIZE(atom_info%r, 2) =           0
 natom =           3
 SIZE(atom_info%r, 2) =           0
 natom =           3
 SIZE(atom_info%r, 2) =           0
 natom =           3
 SIZE(atom_info%r, 2) =           0
 natom =           3
 SIZE(atom_info%r, 2) =           0
 natom =           3
 SIZE(atom_info%r, 2) =           0
 natom =           3
 SIZE(atom_info%r, 2) =           0
 natom =           3
 SIZE(atom_info%r, 2) =           0
 natom =           3
 SIZE(atom_info%r, 2) =           0
 natom =           3
 SIZE(atom_info%r, 2) =           0
 natom =           3
 SIZE(atom_info%r, 2) =           0
 natom =           3
 SIZE(atom_info%r, 2) =           0
 natom =           3
 SIZE(atom_info%r, 2) =           0
 natom =           3
 SIZE(atom_info%r, 2) =           0
 natom =           3
 SIZE(atom_info%r, 2) =           0
 natom =           3
 SIZE(atom_info%r, 2) =           0
 natom =           3
 SIZE(atom_info%r, 2) =           0
 natom =           3
 SIZE(atom_info%r, 2) =           0
 natom =           3
 SIZE(atom_info%r, 2) =           0
 natom =           3
 SIZE(atom_info%r, 2) =           0
 natom =           3
 SIZE(atom_info%r, 2) =           0
 natom =           3
 SIZE(atom_info%r, 2) =           0
 natom =           3
 SIZE(atom_info%r, 2) =           0
 natom =           3
 SIZE(atom_info%r, 2) =           0
 natom =           3
 SIZE(atom_info%r, 2) =           0
 natom =           3
 SIZE(atom_info%r, 2) =           0
 natom =           3
 SIZE(atom_info%r, 2) =           0
 natom =           3
 SIZE(atom_info%r, 2) =           0
 natom =           3
 SIZE(atom_info%r, 2) =           0
 natom =           3
 SIZE(atom_info%r, 2) =           0
 natom =           3
 SIZE(atom_info%r, 2) =           0
 natom =           3
 SIZE(atom_info%r, 2) =           0
 natom =           3
 SIZE(atom_info%r, 2) =           0
 natom =           3
 SIZE(atom_info%r, 2) =           0
 natom =           3
 SIZE(atom_info%r, 2) =           0
 natom =           3
 SIZE(atom_info%r, 2) =           0
 natom =           3
 SIZE(atom_info%r, 2) =           0
 natom =           3
 SIZE(atom_info%r, 2) =           0
 natom =           3
 SIZE(atom_info%r, 2) =           0
 natom =           3
 SIZE(atom_info%r, 2) =           0
 natom =           3
 SIZE(atom_info%r, 2) =           0
 natom =           3
 SIZE(atom_info%r, 2) =           0
 natom =           3
 SIZE(atom_info%r, 2) =           0
 natom =           3
 SIZE(atom_info%r, 2) =           0
 natom =           3
 SIZE(atom_info%r, 2) =           0
 natom =           3
 SIZE(atom_info%r, 2) =           0
 natom =           3
 SIZE(atom_info%r, 2) =           0
 natom =           3
 SIZE(atom_info%r, 2) =           0
 natom =           3
 SIZE(atom_info%r, 2) =           0
 natom =           3
 SIZE(atom_info%r, 2) =           0
 natom =           3
 SIZE(atom_info%r, 2) =           0
 natom =           3
 SIZE(atom_info%r, 2) =           0
 natom =           3
 SIZE(atom_info%r, 2) =           0
 natom =           3
 SIZE(atom_info%r, 2) =           0
 natom =           3
 SIZE(atom_info%r, 2) =           0
 natom =           3
 SIZE(atom_info%r, 2) =           0
 natom =           3
 SIZE(atom_info%r, 2) =           0
 natom =           3
 SIZE(atom_info%r, 2) =           0
 natom =           3
 SIZE(atom_info%r, 2) =           0
 natom =           3
 SIZE(atom_info%r, 2) =           0
 natom =           3
 SIZE(atom_info%r, 2) =           0
 natom =           3
 SIZE(atom_info%r, 2) =           0
 natom =           3
 SIZE(atom_info%r, 2) =           0
 natom =           3
 SIZE(atom_info%r, 2) =           0
 natom =           3
 SIZE(atom_info%r, 2) =           0
 natom =           3
 SIZE(atom_info%r, 2) =           0
 natom =           3
 SIZE(atom_info%r, 2) =           0
 natom =           3
 SIZE(atom_info%r, 2) =           0
 natom =           3
 SIZE(atom_info%r, 2) =           0
 natom =           3
 SIZE(atom_info%r, 2) =           0
 natom =           3
 SIZE(atom_info%r, 2) =           0
 natom =           3
 SIZE(atom_info%r, 2) =           0
 natom =           3
 SIZE(atom_info%r, 2) =           0
 natom =           3
 SIZE(atom_info%r, 2) =           0
 natom =           3
 SIZE(atom_info%r, 2) =           0
 natom =           3
 SIZE(atom_info%r, 2) =           0
 natom =           3
 SIZE(atom_info%r, 2) =           0
 natom =           3
 SIZE(atom_info%r, 2) =           0
 natom =           3
 SIZE(atom_info%r, 2) =           0
 natom =           3
 SIZE(atom_info%r, 2) =           0
 natom =           3
 SIZE(atom_info%r, 2) =           0
 natom =           3
 SIZE(atom_info%r, 2) =           0
 natom =           3
 SIZE(atom_info%r, 2) =           0
 natom =           3
 SIZE(atom_info%r, 2) =           0
 natom =           3
 SIZE(atom_info%r, 2) =           0
 natom =           3
 SIZE(atom_info%r, 2) =           0
 natom =           3
 SIZE(atom_info%r, 2) =           0
 natom =           3
 SIZE(atom_info%r, 2) =           0
 natom =           3
 SIZE(atom_info%r, 2) =           0
 natom =           3
 SIZE(atom_info%r, 2) =           0
 natom =           3
 SIZE(atom_info%r, 2) =           0
 natom =           3
 SIZE(atom_info%r, 2) =           0
 natom =           3
 SIZE(atom_info%r, 2) =           0
 natom =           3
 SIZE(atom_info%r, 2) =           0
 natom =           3
 SIZE(atom_info%r, 2) =           0
 natom =           3
 SIZE(atom_info%r, 2) =           0
 natom =           3
 SIZE(atom_info%r, 2) =           0
 natom =           3
 SIZE(atom_info%r, 2) =           0
 natom =           3
 SIZE(atom_info%r, 2) =           0
 natom =           3
 SIZE(atom_info%r, 2) =           0
 natom =           3
 SIZE(atom_info%r, 2) =           0
 natom =           3
 SIZE(atom_info%r, 2) =           0
 natom =           3
 SIZE(atom_info%r, 2) =           0
 natom =           3
 SIZE(atom_info%r, 2) =           0
 natom =           3
 SIZE(atom_info%r, 2) =           0
 natom =           3
 SIZE(atom_info%r, 2) =           0
 natom =           3
 SIZE(atom_info%r, 2) =           0
 natom =           3
 SIZE(atom_info%r, 2) =           0
 natom =           3
 SIZE(atom_info%r, 2) =           0
 natom =           3
 SIZE(atom_info%r, 2) =           0
 natom =           3
 SIZE(atom_info%r, 2) =           0
 natom =           3
 SIZE(atom_info%r, 2) =           0
 natom =           3
 SIZE(atom_info%r, 2) =           0
 natom =           3
 SIZE(atom_info%r, 2) =           0
 natom =           3
 SIZE(atom_info%r, 2) =           0
 natom =           3
 SIZE(atom_info%r, 2) =           0
 natom =           3
 SIZE(atom_info%r, 2) =           0
 natom =           3
 SIZE(atom_info%r, 2) =           0
 natom =           3
 SIZE(atom_info%r, 2) =           0
 natom =           3
 SIZE(atom_info%r, 2) =           0
 natom =           3
 SIZE(atom_info%r, 2) =           0
 natom =           3
 SIZE(atom_info%r, 2) =           0
 natom =           3
 SIZE(atom_info%r, 2) =           0
 natom =           3
 SIZE(atom_info%r, 2) =           0
 natom =           3
 SIZE(atom_info%r, 2) =           0
 natom =           3
 SIZE(atom_info%r, 2) =           0
 natom =           3
 SIZE(atom_info%r, 2) =           0
 natom =           3
 SIZE(atom_info%r, 2) =           0
 natom =           3
 SIZE(atom_info%r, 2) =           0
 natom =           3
 SIZE(atom_info%r, 2) =           0
 natom =           3
 SIZE(atom_info%r, 2) =           0
 natom =           3
 SIZE(atom_info%r, 2) =           0
 natom =           3
 SIZE(atom_info%r, 2) =           0
 natom =           3
 SIZE(atom_info%r, 2) =           0
 natom =           3
 SIZE(atom_info%r, 2) =           0
 natom =           3
 SIZE(atom_info%r, 2) =           0
 natom =           3
 SIZE(atom_info%r, 2) =           0
 natom =           3
 SIZE(atom_info%r, 2) =           0
 natom =           3
 SIZE(atom_info%r, 2) =           0
 natom =           3
 SIZE(atom_info%r, 2) =           0
 natom =           3
 SIZE(atom_info%r, 2) =           0
 natom =           3
 SIZE(atom_info%r, 2) =           0
 natom =           3
 SIZE(atom_info%r, 2) =           0
 natom =           3
 SIZE(atom_info%r, 2) =           0
 natom =           3
 SIZE(atom_info%r, 2) =           0
 natom =           3
 SIZE(atom_info%r, 2) =           0
 natom =           3
 SIZE(atom_info%r, 2) =           0
 natom =           3
 SIZE(atom_info%r, 2) =           0
 natom =           3
 SIZE(atom_info%r, 2) =           0
 natom =           3
 SIZE(atom_info%r, 2) =           0
 natom =           3
 SIZE(atom_info%r, 2) =           0
 natom =           3
 SIZE(atom_info%r, 2) =           0
 natom =           3
 SIZE(atom_info%r, 2) =           0
 natom =           3
 SIZE(atom_info%r, 2) =           0
 natom =           3
 SIZE(atom_info%r, 2) =           0
 natom =           3
 SIZE(atom_info%r, 2) =           0
 natom =           3
 SIZE(atom_info%r, 2) =           0
 natom =           3
 SIZE(atom_info%r, 2) =           0
 natom =           3
 SIZE(atom_info%r, 2) =           0
 natom =           3
 SIZE(atom_info%r, 2) =           0
 natom =           3
 SIZE(atom_info%r, 2) =           0
 natom =           3
 SIZE(atom_info%r, 2) =           0
 natom =           3
 SIZE(atom_info%r, 2) =           0
 natom =           3
 SIZE(atom_info%r, 2) =           0
 natom =           3
 SIZE(atom_info%r, 2) =           0
 natom =           3
 SIZE(atom_info%r, 2) =           0
 natom =           3
 SIZE(atom_info%r, 2) =           0
 natom =           3
 SIZE(atom_info%r, 2) =           0
 natom =           3
 SIZE(atom_info%r, 2) =           0
 natom =           3
 SIZE(atom_info%r, 2) =           0
 natom =           3
 SIZE(atom_info%r, 2) =           0
 natom =           3
 SIZE(atom_info%r, 2) =           0
 natom =           3
 SIZE(atom_info%r, 2) =           0
 natom =           3
 SIZE(atom_info%r, 2) =           0
 natom =           3
 SIZE(atom_info%r, 2) =           0
 natom =           3
 SIZE(atom_info%r, 2) =           0
 natom =           3
 SIZE(atom_info%r, 2) =           0
 natom =           3
 SIZE(atom_info%r, 2) =           0
 natom =           3
 SIZE(atom_info%r, 2) =           0
 natom =           3
 SIZE(atom_info%r, 2) =           0
 natom =           3
 SIZE(atom_info%r, 2) =           0
 natom =           3
 SIZE(atom_info%r, 2) =           0
 natom =           3
 SIZE(atom_info%r, 2) =           0
 natom =           3
 SIZE(atom_info%r, 2) =           0
 natom =           3
 SIZE(atom_info%r, 2) =           0
 natom =           3
 SIZE(atom_info%r, 2) =           0
 natom =           3
 SIZE(atom_info%r, 2) =           0
 natom =           3
 SIZE(atom_info%r, 2) =           0
 natom =           3
 SIZE(atom_info%r, 2) =           0
 natom =           3
 SIZE(atom_info%r, 2) =           0
 natom =           3
 SIZE(atom_info%r, 2) =           0
 natom =           3
 SIZE(atom_info%r, 2) =           0
 natom =           3
 SIZE(atom_info%r, 2) =           0
 natom =           3
 SIZE(atom_info%r, 2) =           0
 natom =           3
 SIZE(atom_info%r, 2) =           0
 natom =           3
 SIZE(atom_info%r, 2) =           0
 natom =           3
 SIZE(atom_info%r, 2) =           0
 natom =           3
 SIZE(atom_info%r, 2) =           0
 natom =           3
 SIZE(atom_info%r, 2) =           0
 natom =           3
 SIZE(atom_info%r, 2) =           0
 natom =           3
 SIZE(atom_info%r, 2) =           0
 natom =           3
 SIZE(atom_info%r, 2) =           0
 natom =           3
 SIZE(atom_info%r, 2) =           0
 natom =           3
 SIZE(atom_info%r, 2) =           0
 natom =           3
 SIZE(atom_info%r, 2) =           0
 natom =           3
 SIZE(atom_info%r, 2) =           0
 natom =           3
 SIZE(atom_info%r, 2) =           0
 natom =           3
 SIZE(atom_info%r, 2) =           0
 natom =           3
 SIZE(atom_info%r, 2) =           0
 natom =           3
 SIZE(atom_info%r, 2) =           0
 natom =           3
 SIZE(atom_info%r, 2) =           0
 natom =           3
 SIZE(atom_info%r, 2) =           0
 natom =           3
 SIZE(atom_info%r, 2) =           0
 natom =           3
 SIZE(atom_info%r, 2) =           0
 natom =           3
 SIZE(atom_info%r, 2) =           0
 natom =           3
 SIZE(atom_info%r, 2) =           0
 natom =           3
 SIZE(atom_info%r, 2) =           0
 natom =           3
 SIZE(atom_info%r, 2) =           0
 natom =           3
 SIZE(atom_info%r, 2) =           0
 natom =           3
 SIZE(atom_info%r, 2) =           0
 natom =           3
 SIZE(atom_info%r, 2) =           0
 natom =           3
 SIZE(atom_info%r, 2) =           0
 natom =           3
 SIZE(atom_info%r, 2) =           0
 natom =           3
 SIZE(atom_info%r, 2) =           0
 natom =           3
 SIZE(atom_info%r, 2) =           0
 natom =           3
 SIZE(atom_info%r, 2) =           0
 natom =           3
 SIZE(atom_info%r, 2) =           0
 natom =           3
 SIZE(atom_info%r, 2) =           0
 natom =           3
 SIZE(atom_info%r, 2) =           0
 natom =           3
 SIZE(atom_info%r, 2) =           0
 natom =           3
 SIZE(atom_info%r, 2) =           0
 natom =           3
 SIZE(atom_info%r, 2) =           0
 natom =           3
 SIZE(atom_info%r, 2) =           0
 natom =           3
 SIZE(atom_info%r, 2) =           0
 natom =           3
 SIZE(atom_info%r, 2) =           0
 natom =           3
 SIZE(atom_info%r, 2) =           0
 natom =           3
 SIZE(atom_info%r, 2) =           0
 natom =           3
 SIZE(atom_info%r, 2) =           0
 natom =           3
 SIZE(atom_info%r, 2) =           0
 natom =           3
 SIZE(atom_info%r, 2) =           0
 natom =           3
 SIZE(atom_info%r, 2) =           0
 natom =           3
 SIZE(atom_info%r, 2) =           0
 natom =           3
 SIZE(atom_info%r, 2) =           0
 natom =           3
 SIZE(atom_info%r, 2) =           0
 natom =           3
 SIZE(atom_info%r, 2) =           0
 natom =           3
 SIZE(atom_info%r, 2) =           0
 natom =           3
 SIZE(atom_info%r, 2) =           0
 natom =           3
 SIZE(atom_info%r, 2) =           0
 natom =           3
 SIZE(atom_info%r, 2) =           0
 natom =           3
 SIZE(atom_info%r, 2) =           0
 natom =           3
 SIZE(atom_info%r, 2) =           0
 natom =           3
 SIZE(atom_info%r, 2) =           0
 natom =           3
 SIZE(atom_info%r, 2) =           0
 natom =           3
 SIZE(atom_info%r, 2) =           0
 natom =           3
 SIZE(atom_info%r, 2) =           0
 natom =           3
 SIZE(atom_info%r, 2) =           0
 natom =           3
 SIZE(atom_info%r, 2) =           0
 natom =           3
 SIZE(atom_info%r, 2) =           0
 natom =           3
 SIZE(atom_info%r, 2) =           0
 natom =           3
 SIZE(atom_info%r, 2) =           0
 natom =           3
 SIZE(atom_info%r, 2) =           0
 natom =           3
 SIZE(atom_info%r, 2) =           0
 natom =           3
 SIZE(atom_info%r, 2) =           0
 natom =           3
 SIZE(atom_info%r, 2) =           0
 natom =           3
 SIZE(atom_info%r, 2) =           0
 natom =           3
 SIZE(atom_info%r, 2) =           0
 natom =           3
 SIZE(atom_info%r, 2) =           0
 natom =           3
 SIZE(atom_info%r, 2) =           0
 natom =           3
 SIZE(atom_info%r, 2) =           0
 natom =           3
 SIZE(atom_info%r, 2) =           0
 natom =           3
 SIZE(atom_info%r, 2) =           0
 natom =           3
 SIZE(atom_info%r, 2) =           0
 natom =           3
 SIZE(atom_info%r, 2) =           0
 natom =           3
 SIZE(atom_info%r, 2) =           0
 natom =           3
 SIZE(atom_info%r, 2) =           0
 natom =           3
 SIZE(atom_info%r, 2) =           0
 natom =           3
 SIZE(atom_info%r, 2) =           0
 natom =           3
 SIZE(atom_info%r, 2) =           0
 natom =           3
 SIZE(atom_info%r, 2) =           0
 natom =           3
 SIZE(atom_info%r, 2) =           0
 natom =           3
 SIZE(atom_info%r, 2) =           0
 natom =           3
 SIZE(atom_info%r, 2) =           0
 natom =           3
 SIZE(atom_info%r, 2) =           0
 natom =           3
 SIZE(atom_info%r, 2) =           0
 natom =           3
 SIZE(atom_info%r, 2) =           0
 natom =           3
 SIZE(atom_info%r, 2) =           0
 natom =           3
 SIZE(atom_info%r, 2) =           0
 natom =           3
 SIZE(atom_info%r, 2) =           0
 natom =           3
 SIZE(atom_info%r, 2) =           0
 natom =           3
 SIZE(atom_info%r, 2) =           0
 natom =           3
 SIZE(atom_info%r, 2) =           0
 natom =           3
 SIZE(atom_info%r, 2) =           0
 natom =           3
 SIZE(atom_info%r, 2) =           0
 natom =           3
 SIZE(atom_info%r, 2) =           0
 natom =           3
 SIZE(atom_info%r, 2) =           0
 natom =           3
 SIZE(atom_info%r, 2) =           0
 natom =           3
 SIZE(atom_info%r, 2) =           0
 natom =           3
 SIZE(atom_info%r, 2) =           0
 natom =           3
 SIZE(atom_info%r, 2) =           0
 natom =           3
 SIZE(atom_info%r, 2) =           0
 natom =           3
 SIZE(atom_info%r, 2) =           0
 natom =           3
 SIZE(atom_info%r, 2) =           0
 natom =           3
 SIZE(atom_info%r, 2) =           0
 natom =           3
 SIZE(atom_info%r, 2) =           0
 natom =           3
 SIZE(atom_info%r, 2) =           0
 natom =           3
 SIZE(atom_info%r, 2) =           0
 natom =           3
 SIZE(atom_info%r, 2) =           0
 natom =           3
 SIZE(atom_info%r, 2) =           0
 natom =           3
 SIZE(atom_info%r, 2) =           0
 natom =           3
 SIZE(atom_info%r, 2) =           0
 natom =           3
 SIZE(atom_info%r, 2) =           0
 natom =           3
 SIZE(atom_info%r, 2) =           0
 natom =           3
 SIZE(atom_info%r, 2) =           0
 natom =           3
 SIZE(atom_info%r, 2) =           0
 natom =           3
 SIZE(atom_info%r, 2) =           0
 natom =           3
 SIZE(atom_info%r, 2) =           0
 natom =           3
 SIZE(atom_info%r, 2) =           0
 natom =           3
 SIZE(atom_info%r, 2) =           0
 natom =           3
 SIZE(atom_info%r, 2) =           0
 natom =           3
 SIZE(atom_info%r, 2) =           0
 natom =           3
 SIZE(atom_info%r, 2) =           0
 natom =           3
 SIZE(atom_info%r, 2) =           0
 natom =           3
 SIZE(atom_info%r, 2) =           0
 natom =           3
 SIZE(atom_info%r, 2) =           0
 natom =           3
 SIZE(atom_info%r, 2) =           0
 natom =           3
 SIZE(atom_info%r, 2) =           0
 natom =           3
 SIZE(atom_info%r, 2) =           0
 natom =           3
 SIZE(atom_info%r, 2) =           0
 natom =           3
 SIZE(atom_info%r, 2) =           0
 natom =           3
 SIZE(atom_info%r, 2) =           0
 natom =           3
 SIZE(atom_info%r, 2) =           0
 natom =           3
 SIZE(atom_info%r, 2) =           0
 natom =           3
 SIZE(atom_info%r, 2) =           0
 natom =           3
 SIZE(atom_info%r, 2) =           0
 natom =           3
 SIZE(atom_info%r, 2) =           0
 natom =           3
 SIZE(atom_info%r, 2) =           0
 natom =           3
 SIZE(atom_info%r, 2) =           0
 natom =           3
 SIZE(atom_info%r, 2) =           0
 natom =           3
 SIZE(atom_info%r, 2) =           0
 natom =           3
 SIZE(atom_info%r, 2) =           0
 natom =           3
 SIZE(atom_info%r, 2) =           0
 natom =           3
 SIZE(atom_info%r, 2) =           0
 natom =           3
 SIZE(atom_info%r, 2) =           0
 natom =           3
 SIZE(atom_info%r, 2) =           0
 natom =           3
 SIZE(atom_info%r, 2) =           0
 natom =           3
 SIZE(atom_info%r, 2) =           0
 natom =           3
 SIZE(atom_info%r, 2) =           0
 natom =           3
 SIZE(atom_info%r, 2) =           0
 natom =           3
 SIZE(atom_info%r, 2) =           0
 natom =           3
 SIZE(atom_info%r, 2) =           0
 natom =           3
 SIZE(atom_info%r, 2) =           0
 natom =           3
 SIZE(atom_info%r, 2) =           0
 natom =           3
 SIZE(atom_info%r, 2) =           0
 natom =           3
 SIZE(atom_info%r, 2) =           0
 natom =           3
 SIZE(atom_info%r, 2) =           0
 natom =           3
 SIZE(atom_info%r, 2) =           0
 natom =           3
 SIZE(atom_info%r, 2) =           0
 natom =           3
 SIZE(atom_info%r, 2) =           0
 natom =           3
 SIZE(atom_info%r, 2) =           0
 natom =           3
 SIZE(atom_info%r, 2) =           0
 natom =           3
 SIZE(atom_info%r, 2) =           0
 natom =           3
 SIZE(atom_info%r, 2) =           0
 natom =           3
 SIZE(atom_info%r, 2) =           0
 natom =           3
 SIZE(atom_info%r, 2) =           0
 natom =           3
 SIZE(atom_info%r, 2) =           0
 natom =           3
 SIZE(atom_info%r, 2) =           0
 natom =           3
 SIZE(atom_info%r, 2) =           0
 natom =           3
 SIZE(atom_info%r, 2) =           0
 natom =           3
 SIZE(atom_info%r, 2) =           0
 natom =           3
 SIZE(atom_info%r, 2) =           0
 natom =           3
 SIZE(atom_info%r, 2) =           0
 natom =           3
 SIZE(atom_info%r, 2) =           0
 natom =           3
 SIZE(atom_info%r, 2) =           0
 natom =           3
 SIZE(atom_info%r, 2) =           0
 natom =           3
 SIZE(atom_info%r, 2) =           0
 natom =           3
 SIZE(atom_info%r, 2) =           0
 natom =           3
 SIZE(atom_info%r, 2) =           0
 natom =           3
 SIZE(atom_info%r, 2) =           0
 natom =           3
 SIZE(atom_info%r, 2) =           0
 natom =           3
 SIZE(atom_info%r, 2) =           0
 natom =           3
 SIZE(atom_info%r, 2) =           0
 natom =           3
 SIZE(atom_info%r, 2) =           0
 natom =           3
 SIZE(atom_info%r, 2) =           0
 natom =           3
 SIZE(atom_info%r, 2) =           0
 natom =           3
 SIZE(atom_info%r, 2) =           0
 natom =           3
 SIZE(atom_info%r, 2) =           0
 natom =           3
 SIZE(atom_info%r, 2) =           0
 natom =           3
 SIZE(atom_info%r, 2) =           0
 natom =           3
 SIZE(atom_info%r, 2) =           0
 natom =           3
 SIZE(atom_info%r, 2) =           0
 natom =           3
 SIZE(atom_info%r, 2) =           0
 natom =           3
 SIZE(atom_info%r, 2) =           0
 natom =           3
 SIZE(atom_info%r, 2) =           0
 natom =           3
 SIZE(atom_info%r, 2) =           0
 natom =           3
 SIZE(atom_info%r, 2) =           0
 natom =           3
 SIZE(atom_info%r, 2) =           0
 natom =           3
 SIZE(atom_info%r, 2) =           0
 natom =           3
 SIZE(atom_info%r, 2) =           0
 natom =           3
 SIZE(atom_info%r, 2) =           0
 natom =           3
 SIZE(atom_info%r, 2) =           0
 natom =           3
 SIZE(atom_info%r, 2) =           0
 natom =           3
 SIZE(atom_info%r, 2) =           0
 natom =           3
 SIZE(atom_info%r, 2) =           0
 natom =           3
 SIZE(atom_info%r, 2) =           0
 natom =           3
 SIZE(atom_info%r, 2) =           0
 natom =           3
 SIZE(atom_info%r, 2) =           0
 natom =           3
 SIZE(atom_info%r, 2) =           0
 natom =           3
 SIZE(atom_info%r, 2) =           0
 natom =           3
 SIZE(atom_info%r, 2) =           0
 natom =           3
 SIZE(atom_info%r, 2) =           0
 natom =           3
 SIZE(atom_info%r, 2) =           0
 natom =           3
 SIZE(atom_info%r, 2) =           0
 natom =           3
 SIZE(atom_info%r, 2) =           0
 natom =           3
 SIZE(atom_info%r, 2) =           0
 natom =           3
 SIZE(atom_info%r, 2) =           0
 natom =           3
 SIZE(atom_info%r, 2) =           0
 natom =           3
 SIZE(atom_info%r, 2) =           0
 natom =           3
 SIZE(atom_info%r, 2) =           0
 natom =           3
 SIZE(atom_info%r, 2) =           0
 natom =           3
 SIZE(atom_info%r, 2) =           0
 natom =           3
 SIZE(atom_info%r, 2) =           0
 natom =           3
 SIZE(atom_info%r, 2) =           0
 natom =           3
 SIZE(atom_info%r, 2) =           0
 natom =           3
 SIZE(atom_info%r, 2) =           0
 natom =           3
 SIZE(atom_info%r, 2) =           0
 natom =           3
 SIZE(atom_info%r, 2) =           0
 natom =           3
 SIZE(atom_info%r, 2) =           0
 natom =           3
 SIZE(atom_info%r, 2) =           0
 natom =           3
 SIZE(atom_info%r, 2) =           0
 natom =           3
 SIZE(atom_info%r, 2) =           0
 natom =           3
 SIZE(atom_info%r, 2) =           0
 natom =           3
 SIZE(atom_info%r, 2) =           0
 natom =           3
 SIZE(atom_info%r, 2) =           0
 natom =           3
 SIZE(atom_info%r, 2) =           0
 natom =           3
 SIZE(atom_info%r, 2) =           0
 natom =           3
 SIZE(atom_info%r, 2) =           0
 natom =           3
 SIZE(atom_info%r, 2) =           0
 natom =           3
 SIZE(atom_info%r, 2) =           0
 natom =           3
 SIZE(atom_info%r, 2) =           0
 natom =           3
 SIZE(atom_info%r, 2) =           0
 natom =           3
 SIZE(atom_info%r, 2) =           0
 natom =           3
 SIZE(atom_info%r, 2) =           0
 natom =           3
 SIZE(atom_info%r, 2) =           0
 natom =           3
 SIZE(atom_info%r, 2) =           0
 natom =           3
 SIZE(atom_info%r, 2) =           0
 natom =           3
 SIZE(atom_info%r, 2) =           0
 natom =           3
 SIZE(atom_info%r, 2) =           0
 natom =           3
 SIZE(atom_info%r, 2) =           0
 natom =           3
 SIZE(atom_info%r, 2) =           0
 natom =           3
 SIZE(atom_info%r, 2) =           0
 natom =           3
 SIZE(atom_info%r, 2) =           0
 natom =           3
 SIZE(atom_info%r, 2) =           0
 natom =           3
 SIZE(atom_info%r, 2) =           0
 natom =           3
 SIZE(atom_info%r, 2) =           0
 natom =           3
 SIZE(atom_info%r, 2) =           0
 natom =           3
 SIZE(atom_info%r, 2) =           0
 natom =           3
 SIZE(atom_info%r, 2) =           0
 natom =           3
 SIZE(atom_info%r, 2) =           0
 natom =           3
 SIZE(atom_info%r, 2) =           0
 natom =           3
 SIZE(atom_info%r, 2) =           0
 natom =           3
 SIZE(atom_info%r, 2) =           0
 natom =           3
 SIZE(atom_info%r, 2) =           0
 natom =           3
 SIZE(atom_info%r, 2) =           0
 natom =           3
 SIZE(atom_info%r, 2) =           0
 natom =           3
 SIZE(atom_info%r, 2) =           0
 natom =           3
 SIZE(atom_info%r, 2) =           0
 natom =           3
 SIZE(atom_info%r, 2) =           0
 natom =           3
 SIZE(atom_info%r, 2) =           0
 natom =           3
 SIZE(atom_info%r, 2) =           0
 natom =           3
 SIZE(atom_info%r, 2) =           0
 natom =           3
 SIZE(atom_info%r, 2) =           0
 natom =           3
 SIZE(atom_info%r, 2) =           0
 natom =           3
 SIZE(atom_info%r, 2) =           0
 natom =           3
 SIZE(atom_info%r, 2) =           0
 natom =           3
 SIZE(atom_info%r, 2) =           0
 natom =           3
 SIZE(atom_info%r, 2) =           0
 natom =           3
 SIZE(atom_info%r, 2) =           0
 natom =           3
 SIZE(atom_info%r, 2) =           0
 natom =           3
 SIZE(atom_info%r, 2) =           0
 natom =           3
 SIZE(atom_info%r, 2) =           0
 natom =           3
 SIZE(atom_info%r, 2) =           0
 natom =           3
 SIZE(atom_info%r, 2) =           0
 natom =           3
 SIZE(atom_info%r, 2) =           0
 natom =           3
 SIZE(atom_info%r, 2) =           0
 natom =           3
 SIZE(atom_info%r, 2) =           0
 natom =           3
 SIZE(atom_info%r, 2) =           0
 natom =           3
 SIZE(atom_info%r, 2) =           0
 natom =           3
 SIZE(atom_info%r, 2) =           0
 natom =           3
 SIZE(atom_info%r, 2) =           0
 natom =           3
 SIZE(atom_info%r, 2) =           0
 natom =           3
 SIZE(atom_info%r, 2) =           0
 natom =           3
 SIZE(atom_info%r, 2) =           0
 natom =           3
 SIZE(atom_info%r, 2) =           0
 natom =           3
 SIZE(atom_info%r, 2) =           0
 natom =           3
 SIZE(atom_info%r, 2) =           0
 natom =           3
 SIZE(atom_info%r, 2) =           0
 natom =           3
 SIZE(atom_info%r, 2) =           0
 natom =           3
 SIZE(atom_info%r, 2) =           0
 natom =           3
 SIZE(atom_info%r, 2) =           0
 natom =           3
 SIZE(atom_info%r, 2) =           0
 natom =           3
 SIZE(atom_info%r, 2) =           0
 natom =           3
 SIZE(atom_info%r, 2) =           0
 natom =           3
 SIZE(atom_info%r, 2) =           0
 natom =           3
 SIZE(atom_info%r, 2) =           0
 natom =           3
 SIZE(atom_info%r, 2) =           0
 natom =           3
 SIZE(atom_info%r, 2) =           0
 natom =           3
 SIZE(atom_info%r, 2) =           0
 natom =           3
 SIZE(atom_info%r, 2) =           0
 natom =           3
 SIZE(atom_info%r, 2) =           0
 natom =           3
 SIZE(atom_info%r, 2) =           0
 natom =           3
 SIZE(atom_info%r, 2) =           0
 natom =           3
 SIZE(atom_info%r, 2) =           0
 natom =           3
 SIZE(atom_info%r, 2) =           0
 natom =           3
 SIZE(atom_info%r, 2) =           0
 natom =           3
 SIZE(atom_info%r, 2) =           0
 natom =           3
 SIZE(atom_info%r, 2) =           0
 natom =           3
 SIZE(atom_info%r, 2) =           0
 natom =           3
 SIZE(atom_info%r, 2) =           0
 natom =           3
 SIZE(atom_info%r, 2) =           0
 natom =           3
 SIZE(atom_info%r, 2) =           0
 natom =           3
 SIZE(atom_info%r, 2) =           0
 natom =           3
 SIZE(atom_info%r, 2) =           0
 natom =           3
 SIZE(atom_info%r, 2) =           0
 natom =           3
 SIZE(atom_info%r, 2) =           0
 natom =           3
 SIZE(atom_info%r, 2) =           0
 natom =           3
 SIZE(atom_info%r, 2) =           0
 natom =           3
 SIZE(atom_info%r, 2) =           0
 natom =           3
 SIZE(atom_info%r, 2) =           0
 natom =           3
 SIZE(atom_info%r, 2) =           0
 natom =           3
 SIZE(atom_info%r, 2) =           0
 natom =           3
 SIZE(atom_info%r, 2) =           0
 natom =           3
 SIZE(atom_info%r, 2) =           0
 natom =           3
 SIZE(atom_info%r, 2) =           0
 natom =           3
 SIZE(atom_info%r, 2) =           0
 natom =           3
 SIZE(atom_info%r, 2) =           0
 natom =           3
 SIZE(atom_info%r, 2) =           0
 natom =           3
 SIZE(atom_info%r, 2) =           0
 
 GENERATE|  Preliminary Number of Bonds generated:                             0
 GENERATE|  Achieved consistency in connectivity generation.

 CELL| Volume [angstrom^3]:                                         17314.970895
 CELL| Vector a [angstrom]:      36.509     0.000     0.000   |a| =    36.509000
 CELL| Vector b [angstrom]:     -18.254    31.618     0.000   |b| =    36.509000
 CELL| Vector c [angstrom]:       0.000     0.000    15.000   |c| =    15.000000
 CELL| Angle (b,c), alpha [degree]:                                    90.000000
 CELL| Angle (a,c), beta  [degree]:                                    90.000000
 CELL| Angle (a,b), gamma [degree]:                                   120.000000
 CELL| Numerically orthorhombic:                                              NO
 CELL| Periodicity                                                            XY

 CELL_REF| Volume [angstrom^3]:                                     17314.970895
 CELL_REF| Vector a [angstrom    36.509     0.000     0.000   |a| =    36.509000
 CELL_REF| Vector b [angstrom   -18.254    31.618     0.000   |b| =    36.509000
 CELL_REF| Vector c [angstrom     0.000     0.000    15.000   |c| =    15.000000
 CELL_REF| Angle (b,c), alpha [degree]:                                90.000000
 CELL_REF| Angle (a,c), beta  [degree]:                                90.000000
 CELL_REF| Angle (a,b), gamma [degree]:                               120.000000
 CELL_REF| Numerically orthorhombic:                                          NO
 CELL_REF| Periodicity                                                        XY

 *******************************************************************************
 *******************************************************************************
 **                                                                           **
 **     #####                         ##              ##                      **
 **    ##   ##            ##          ##              ##                      **
 **   ##     ##                       ##            ######                    **
 **   ##     ##  ##   ##  ##   #####  ##  ##   ####   ##    #####    #####    **
 **   ##     ##  ##   ##  ##  ##      ## ##   ##      ##   ##   ##  ##   ##   **
 **   ##  ## ##  ##   ##  ##  ##      ####     ###    ##   ######   ######    **
 **    ##  ###   ##   ##  ##  ##      ## ##      ##   ##   ##       ##        **
 **     #######   #####   ##   #####  ##  ##  ####    ##    #####   ##        **
 **           ##                                                    ##        **
 **                                                                           **
 **                                                ... make the atoms dance   **
 **                                                                           **
 **            Copyright (C) by CP2K developers group (2000-2023)             **
 **                      J. Chem. Phys. 152, 194103 (2020)                    **
 **                                                                           **
 *******************************************************************************

 DFT| Spin restricted Kohn-Sham (RKS) calculation                            RKS
 DFT| Multiplicity                                                             1
 DFT| Number of spin states                                                    1
 DFT| Charge                                                                   0
 DFT| Self-interaction correction (SIC)                                       NO
 DFT| Cutoffs: density                                              1.000000E-10
 DFT|          gradient                                             1.000000E-10
 DFT|          tau                                                  1.000000E-10
 DFT|          cutoff_smoothing_range                               0.000000E+00
 DFT| XC density smoothing                                                  NONE
 DFT| XC derivatives                                                          PW

 FUNCTIONAL| PADE:
 FUNCTIONAL| S. Goedecker, M. Teter and J. Hutter, Phys. Rev. B 54, 1703 (1996) 


 QS| Method:                                                                 GPW
 QS| Density plane wave grid type                        NON-SPHERICAL FULLSPACE
 QS| Number of grid levels:                                                    4
 QS| Density cutoff [a.u.]:                                                250.0
 QS| Multi grid cutoff [a.u.]: 1) grid level                               250.0
 QS|                           2) grid level                                83.3
 QS|                           3) grid level                                27.8
 QS|                           4) grid level                                 9.3
 QS| Grid level progression factor:                                          3.0
 QS| Relative density cutoff [a.u.]:                                        50.0
 QS| Interaction thresholds: eps_pgf_orb:                                1.0E-40
 QS|                         eps_filter_matrix:                          0.0E+00
 QS|                         eps_core_charge:                            1.0E-42
 QS|                         eps_rho_gspace:                             1.0E-40
 QS|                         eps_rho_rspace:                             1.0E-40
 QS|                         eps_gvg_rspace:                             1.0E-20
 QS|                         eps_ppl:                                    1.0E-02
 QS|                         eps_ppnl:                                   1.0E-22


 ATOMIC KIND INFORMATION

  1. Atomic kind: W                                     Number of atoms:     121

     Orbital Basis Set                               TZVP-MOLOPT-SR-GTH_robust_1

       Number of orbital shell sets:                                           1
       Number of orbital shells:                                              11
       Number of primitive Cartesian functions:                                7
       Number of Cartesian basis functions:                                   41
       Number of spherical basis functions:                                   35
       Norm type:                                                              2

       Normalised Cartesian orbitals:

                        Set   Shell   Orbital            Exponent    Coefficient

                          1       1    2s                3.103254       0.432128
                                                         2.893835       0.497697
                                                         1.106151      -0.752121
                                                         0.501100      -0.216922
                                                         0.214447       0.032823
                                                         0.120000      -0.061173
                                                         0.140000       0.053490

                          1       2    3s                3.103254      -0.813729
                                                         2.893835       0.639864
                                                         1.106151       0.039972
                                                         0.501100      -0.059528
                                                         0.214447       0.077002
                                                         0.120000       0.481432
                                                         0.140000      -0.420972

                          1       3    4s                3.103254       1.541003
                                                         2.893835      -0.927602
                                                         1.106151      -0.272969
                                                         0.501100       0.064402
                                                         0.214447      -0.275240
                                                         0.120000       0.981259
                                                         0.140000      -0.858027

                          1       4    5s                3.103254       1.221199
                                                         2.893835      -1.384344
                                                         1.106151       0.313815
                                                         0.501100      -0.289021
                                                         0.214447       0.251699
                                                         0.120000       0.180363
                                                         0.140000      -0.157712

                          1       5    3px               3.103254       6.587488
                                                         2.893835      -5.430631
                                                         1.106151      -0.972560
                                                         0.501100      -0.261614
                                                         0.214447      -0.013936
                                                         0.120000       0.008777
                                                         0.140000      -0.008290
                          1       5    3py               3.103254       6.587488
                                                         2.893835      -5.430631
                                                         1.106151      -0.972560
                                                         0.501100      -0.261614
                                                         0.214447      -0.013936
                                                         0.120000       0.008777
                                                         0.140000      -0.008290
                          1       5    3pz               3.103254       6.587488
                                                         2.893835      -5.430631
                                                         1.106151      -0.972560
                                                         0.501100      -0.261614
                                                         0.214447      -0.013936
                                                         0.120000       0.008777
                                                         0.140000      -0.008290

                          1       6    4px               3.103254      -0.215503
                                                         2.893835       0.319008
                                                         1.106151      -0.250093
                                                         0.501100      -0.016350
                                                         0.214447       0.058331
                                                         0.120000       0.336378
                                                         0.140000      -0.317701
                          1       6    4py               3.103254      -0.215503
                                                         2.893835       0.319008
                                                         1.106151      -0.250093
                                                         0.501100      -0.016350
                                                         0.214447       0.058331
                                                         0.120000       0.336378
                                                         0.140000      -0.317701
                          1       6    4pz               3.103254      -0.215503
                                                         2.893835       0.319008
                                                         1.106151      -0.250093
                                                         0.501100      -0.016350
                                                         0.214447       0.058331
                                                         0.120000       0.336378
                                                         0.140000      -0.317701

                          1       7    5px               3.103254       1.477813
                                                         2.893835      -1.135541
                                                         1.106151       1.380857
                                                         0.501100       0.146858
                                                         0.214447      -0.336829
                                                         0.120000       0.360608
                                                         0.140000      -0.340586
                          1       7    5py               3.103254       1.477813
                                                         2.893835      -1.135541
                                                         1.106151       1.380857
                                                         0.501100       0.146858
                                                         0.214447      -0.336829
                                                         0.120000       0.360608
                                                         0.140000      -0.340586
                          1       7    5pz               3.103254       1.477813
                                                         2.893835      -1.135541
                                                         1.106151       1.380857
                                                         0.501100       0.146858
                                                         0.214447      -0.336829
                                                         0.120000       0.360608
                                                         0.140000      -0.340586

                          1       8    4dx2              3.103254      -0.073730
                                                         2.893835       0.215072
                                                         1.106151       0.648029
                                                         0.501100       0.200612
                                                         0.214447       0.032511
                                                         0.120000       0.039404
                                                         0.140000      -0.040198
                          1       8    4dxy              3.103254      -0.127705
                                                         2.893835       0.372516
                                                         1.106151       1.122419
                                                         0.501100       0.347470
                                                         0.214447       0.056311
                                                         0.120000       0.068250
                                                         0.140000      -0.069626
                          1       8    4dxz              3.103254      -0.127705
                                                         2.893835       0.372516
                                                         1.106151       1.122419
                                                         0.501100       0.347470
                                                         0.214447       0.056311
                                                         0.120000       0.068250
                                                         0.140000      -0.069626
[...]
 flops    17 x    17 x    96          97890819840       0.0%    100.0%      0.0%
 flops    35 x    17 x    96         100355270400       0.0%    100.0%      0.0%
 flops    17 x    35 x    96         100355270400       0.0%    100.0%      0.0%
 flops    35 x    35 x    96         104160672000       0.0%    100.0%      0.0%
 flops   345 x   207 x    87         123951444750       0.0%    100.0%      0.0%
 flops   362 x   207 x    69         127399789440       0.0%    100.0%      0.0%
 flops    17 x    17 x    64         323039705472       0.0%    100.0%      0.0%
 flops    35 x    17 x    64         331172392320       0.0%    100.0%      0.0%
 flops    17 x    35 x    64         331172392320       0.0%    100.0%      0.0%
 flops    35 x    35 x    64         343730217600       0.0%    100.0%      0.0%
 flops   345 x   207 x    69         576730400400       0.0%    100.0%      0.0%
 flops inhomo. stacks                 60644046870     100.0%      0.0%      0.0%
 flops total                         3.206564E+12       1.9%     98.1%      0.0%
 flops max/rank                      4.030370E+09       1.8%     98.2%      0.0%
 matmuls inhomo. stacks                      4800     100.0%      0.0%      0.0%
 matmuls total                           32859252       0.0%    100.0%      0.0%
 number of processed stacks               2097408       0.2%     99.8%      0.0%
 average stack size                                     1.0      15.7       0.0
 marketing flops                   988.707095E+09
 -------------------------------------------------------------------------------
 # multiplications                              6
 max memory usage/rank             847.273984E+06
 # max total images/rank                        5
 # max 3D layers                                1
 # MPI messages exchanged                 1336320
 MPI messages size (bytes):
  total size                       184.886657E+09
  min size                           0.000000E+00
  max size                         301.184000E+03
  average size                     138.355078E+03
 MPI breakdown and total messages size (bytes):
             size <=      128               66240                        0
       128 < size <=     8192                2392                 16165504
      8192 < size <=    32768              128478               2194691280
     32768 < size <=   131072              393578              40773936320
    131072 < size <=  4194304              745632             141901874928
   4194304 < size <= 16777216                   0                        0
  16777216 < size                               0                        0
 -------------------------------------------------------------------------------

 *** WARNING in dbcsr_mm.F:290 :: Using a non-square number of MPI ranks ***
 *** might lead to poor performance. Used ranks: 960 Suggested: 961 1936 ***

 -------------------------------------------------------------------------------
 -                                                                             -
 -                      DBCSR MESSAGE PASSING PERFORMANCE                      -
 -                                                                             -
 -------------------------------------------------------------------------------
 ROUTINE             CALLS      AVE VOLUME [Bytes]
 MP_Bcast               52                     12.
 MP_Allreduce          151                     22.
 MP_Alltoall         99103                2590756.
 MP_ISend             2834                  69130.
 MP_IRecv             2830                  69034.
 -------------------------------------------------------------------------------

 -------------------------------------------------------------------------------
 -                                                                             -
 -                                DBM STATISTICS                               -
 -                                                                             -
 -------------------------------------------------------------------------------
    M  x    N  x    K                                          COUNT     PERCENT
    ?  x   ??  x  ???                                    23307840991       3.06%
   ??  x   ??  x  ???                                    83250849159      10.93%
   ??  x   ??  x   ??                                    10042260362       1.32%
   ??  x    ?  x  ???                                    22886334998       3.00%
   ??  x >999  x   ??                                     1213666784       0.16%
   ??  x   ??  x >999                                     1186134252       0.16%
   ??  x >999  x    ?                                     4772991716       0.63%
   ??  x    ?  x >999                                     4407193474       0.58%
    ?  x    ?  x    ?                                   236292336416      31.02%
    ?  x   ??  x >999                                     4304157090       0.57%
    ?  x >999  x   ??                                     3936799912       0.52%
  ???  x   ??  x   ??                                    98149024994      12.89%
    ?  x    ?  x >999                                    16007462497       2.10%
   ??  x  ???  x   ??                                     7407779516       0.97%
   ??  x  ???  x    ?                                    28785629120       3.78%
    ?  x  ???  x    ?                                    93176956078      12.23%
    ?  x >999  x    ?                                    15450844350       2.03%
    ?  x  ???  x   ??                                    24006392550       3.15%
    ?  x    ?  x  ???                                    83108954111      10.91%
 -------------------------------------------------------------------------------

 -------------------------------------------------------------------------------
 -                                                                             -
 -                                GRID STATISTICS                              -
 -                                                                             -
 -------------------------------------------------------------------------------
 LP    KERNEL             BACKEND                              COUNT     PERCENT
 5     collocate general  REF                                1337292      20.70%
 5     integrate general  REF                                1337292      20.70%
 4     collocate general  REF                                 764478      11.83%
 4     integrate general  REF                                 764478      11.83%
 0     collocate general  REF                                 696960      10.79%
 6     collocate general  REF                                 605847       9.38%
 6     integrate general  REF                                 605847       9.38%
 0     integrate general  REF                                 348480       5.39%
 -------------------------------------------------------------------------------

 MEMORY| Estimated peak process memory [MiB]                                5842

 -------------------------------------------------------------------------------
 ----                             MULTIGRID INFO                            ----
 -------------------------------------------------------------------------------
 count for grid        1:       20198455          cutoff [a.u.]          250.00
 count for grid        2:       14851116          cutoff [a.u.]           83.33
 count for grid        3:        9036270          cutoff [a.u.]           27.78
 count for grid        4:         111360          cutoff [a.u.]            9.26
 total gridlevel count  :       44197201

 -------------------------------------------------------------------------------
 -                                                                             -
 -                         MESSAGE PASSING PERFORMANCE                         -
 -                                                                             -
 -------------------------------------------------------------------------------

 ROUTINE             CALLS      AVE VOLUME [Bytes]
 MP_Group             5935
 MP_Bcast            16327                 483409.
 MP_Allreduce        11621                  18582.
 MP_Sync              8964
 MP_Alltoall          3778
 MP_SendRecv          5754                  12288.
 MP_ISendRecv         5754                  12288.
 MP_Wait             15224
 MP_comm_split        3466
 MP_ISend           925018                 212391.
 MP_IRecv           779332                 216257.
 MP_Recv               260                2137344.
 -------------------------------------------------------------------------------


 -------------------------------------------------------------------------------
 -                                                                             -
 -                           R E F E R E N C E S                               -
 -                                                                             -
 -------------------------------------------------------------------------------
 
 CP2K version 2023.1 (Development Version), the CP2K developers group (2023).
 CP2K is freely available from https://www.cp2k.org/ .

 Kuehne,Thomas D.; Iannuzzi,Marcella; Del Ben,Mauro;
 Rybkin,Vladimir V.; Seewald,Patrick; Stein,Frederick; Laino,Teodoro;
 Khaliullin,Rustam Z.; Schuett,Ole; Schiffmann,Florian; Golze,Dorothea;
 Wilhelm,Jan; Chulkov,Sergey; Bani-Hashemian,Mohammad Hossein;
 Weber,Valery; Borstnik,Urban; Taillefumier,Mathieu;
 Jakobovits,Alice Shoshana; Lazzaro,Alfio; Pabst,Hans; Mueller,Tiziano;
 Schade,Robert; Guidon,Manuel; Andermatt,Samuel; Holmberg,Nico;
 Schenter,Gregory K.; Hehn,Anna; Bussy,Augustin; Belleflamme,Fabian;
 Tabacchi,Gloria; Gloess,Andreas; Lass,Michael; Bethune,Iain;
 Mundy,Christopher J.; Plessl,Christian; Watkins,Matt;
 VandeVondele,Joost; Krack,Matthias; Hutter,Juerg. 
 The Journal of Chemical Physics, 152 (19), (2020). 
 CP2K: An electronic structure and molecular dynamics software package -
 Quickstep: Efficient and accurate electronic structure calculations.
 https://doi.org/10.1063/5.0007045

 Wilhelm, J; Golze, D; Talirz, L; Hutter, J; Pignedoli, CA. 
 JOURNAL OF PHYSICAL CHEMISTRY LETTERS, 9, 306-312 (2018). 
 Toward GW calculations on thousands of atoms.
 https://doi.org/10.1021/acs.jpclett.7b02740

 Wilhelm, J; Hutter, J. PHYSICAL REVIEW B, 95, 235123 (2017). 
 Periodic GW calculations in the Gaussian and plane-waves scheme.
 https://doi.org/10.1103/PhysRevB.95.235123

 Wilhelm, J; Del Ben, M; Hutter, J. 
 JOURNAL OF CHEMICAL THEORY AND COMPUTATION, 12, 3623-3635 (2016). 
 GW in the Gaussian and plane waves scheme with application to linear acenes.
 https://doi.org/10.1021/acs.jctc.6b00380

 Wilhelm, J; Seewald, P; Del Ben, M; Hutter, J. 
 JOURNAL OF CHEMICAL THEORY AND COMPUTATION, 12, 5851-5859 (2016). 
 Large-Scale Cubic-Scaling Random Phase Approximation Correlation.
 https://doi.org/10.1021/acs.jctc.6b00840

 Schuett, Ole; Messmer, Peter; Hutter, Juerg; VandeVondele, Joost. 
 Electronic Structure Calculations on Graphics Processing Units, John
 Wiley & Sons, Ltd, 173-190 (2016). 
 GPU-Accelerated Sparse Matrix-Matrix Multiplication for
 Linear Scaling Density Functional Theory.
 https://doi.org/10.1002/9781118670712.ch8

 Heinecke, A; Henry, G; Hutchinson, M; Pabst, H. 
 Proceedings of Intl. Supercomputing Conference, 981-991 (2016). 
 LIBXSMM: Accelerating Small Matrix Multiplications
 by Runtime Code Generation.
 https://doi.org/10.1109/SC.2016.83

 Del Ben, M; Schuett, O; Wentz, T; Messmer, P; Hutter, J;
 VandeVondele, J. 
 COMPUTER PHYSICS COMMUNICATIONS, 187, 120-129 (2015). 
 Enabling simulation at the fifth rung of DFT: Large scale RPA
 calculations with excellent time to solution.
 https://doi.org/10.1016/j.cpc.2014.10.021

 Borstnik, U; VandeVondele, J; Weber, V; Hutter, J. 
 PARALLEL COMPUTING, 40 (5-6), 47-58 (2014). 
 Sparse matrix multiplication: The distributed block-compressed sparse
 row library.
 https://doi.org/10.1016/j.parco.2014.03.012

 Hutter, J; Iannuzzi, M; Schiffmann, F; VandeVondele, J. 
 WIREs Comput Mol Sci., 4 (1), 15-25 (2014). 
 CP2K: atomistic simulations of condensed matter systems.
 https://doi.org/10.1002/wcms.1159

 Del Ben, M; Hutter, J; VandeVondele, J. 
 JOURNAL OF CHEMICAL THEORY AND COMPUTATION, 9 (6), 2654-2671 (2013). 
 Electron Correlation in the Condensed Phase from a Resolution of
 Identity Approach Based on the Gaussian and Plane Waves Scheme.
 https://doi.org/10.1021/ct4002202

 Del Ben, M; Hutter, J; VandeVondele, J. 
 JOURNAL OF CHEMICAL THEORY AND COMPUTATION, 8 (11), 4177-4188 (2012). 
 Second-Order Moller-Plesset Perturbation Theory in the Condensed Phase:
 An Efficient and Massively Parallel Gaussian and Plane Waves Approach.
 https://doi.org/10.1021/ct300531w

 VandeVondele, J; Hutter, J. 
 JOURNAL OF CHEMICAL PHYSICS, 127 (11), 114105 (2007). 
 Gaussian basis sets for accurate calculations on molecular systems in
 gas and condensed phases.
 https://doi.org/10.1063/1.2770708

 Krack, M. 
 THEORETICAL CHEMISTRY ACCOUNTS, 114 (1-3), 145-152 (2005). 
 Pseudopotentials for H to Kr optimized for gradient-corrected
 exchange-correlation functionals.
 https://doi.org/10.1007/s00214-005-0655-y

 VandeVondele, J; Krack, M; Mohamed, F; Parrinello, M; Chassaing, T;
 Hutter, J. COMPUTER PHYSICS COMMUNICATIONS, 167 (2), 103-128 (2005). 
 QUICKSTEP: Fast and accurate density functional calculations using a
 mixed Gaussian and plane waves approach.
 https://doi.org/10.1016/j.cpc.2004.12.014

 Frigo, M; Johnson, SG. 
 PROCEEDINGS OF THE IEEE, 93 (2), 216-231 (2005). 
 The design and implementation of FFTW3.
 https://doi.org/10.1109/JPROC.2004.840301

 Hartwigsen, C; Goedecker, S; Hutter, J. 
 PHYSICAL REVIEW B, 58 (7), 3641-3662 (1998). 
 Relativistic separable dual-space Gaussian pseudopotentials from H to Rn.
 https://doi.org/10.1103/PhysRevB.58.3641

 Lippert, G; Hutter, J; Parrinello, M. 
 MOLECULAR PHYSICS, 92 (3), 477-487 (1997). 
 A hybrid Gaussian and plane wave density functional scheme.
 https://doi.org/10.1080/002689797170220

 Goedecker, S; Teter, M; Hutter, J. 
 PHYSICAL REVIEW B, 54 (3), 1703-1710 (1996). 
 Separable dual-space Gaussian pseudopotentials.
 https://doi.org/10.1103/PhysRevB.54.1703


 -------------------------------------------------------------------------------
 -                                                                             -
 -                                T I M I N G                                  -
 -                                                                             -
 -------------------------------------------------------------------------------
 SUBROUTINE                       CALLS  ASD         SELF TIME        TOTAL TIME
                                MAXIMUM       AVERAGE  MAXIMUM  AVERAGE  MAXIMUM
 CP2K                                 1  1.0     0.10     0.11 30685.28 30685.61
 qs_energies                          1  2.0     0.01     0.01 30684.40 30684.79
 mp2_main                             1  3.0     0.00     0.00 30657.72 30658.11
 mp2_gpw_main                         1  4.0     0.01     0.01 30651.90 30652.29
 rpa_ri_compute_en                    1  5.0     0.01     0.03 29542.56 29542.93
 rpa_num_int                          1  6.0     0.00     0.00 28977.01 28977.38
 dbt_total                         1907  9.8     0.01     0.04 21046.02 21046.25
 dbt_contract                       765 11.0     0.11     0.17 19987.75 19991.60
 dbt_tas_total                     1206 13.4   238.40   282.20 19570.57 19570.79
 dbt_tas_multiply                  1065 12.8     0.00     0.00 19530.49 19530.70
 compute_QP_energies                  1  7.0     0.00     0.00 17512.73 17512.92
 compute_self_energy_cubic_gw_k       1  8.0     0.11     0.54 17512.46 17512.75
 dbt_tas_dbm                       1065 14.8     0.01     0.01 16609.06 16609.24
 dbm_multiply                      1065 16.8  3883.63 16221.12  3883.63 16221.12
 mp_sync                           8964 12.5 14484.83 15719.81 14484.83 15719.81
 tensor_operation_3c_W               99  9.0     0.00     0.00  8896.04  8898.46
 dbt_tas_mm_3N                      198 16.5     0.00     0.00  1913.95  7967.16
 contract_to_self_energy            198  9.0     0.01     0.01  7219.95  7222.08
 rpa_num_int_RPA_matrix_operati      10  7.0     0.00     0.00  6397.27  6397.68
 invert_eps_compute_W_and_Erpa_      10  8.0     0.01     0.02  6397.20  6397.62
 compute_mat_P_omega                  1  7.0     0.00     0.00  5059.98  5060.07
 compute_mat_P_omega_contract        10  8.0     2.67    12.74  5031.10  5031.48
 compute_Q_kp_RPA                   260  9.0     0.42     2.69  4682.33  4690.53
 parallel_gemm_cfm                 4194 10.2     0.01     0.04  4426.23  4454.68
 parallel_gemm_cfm_cosma           4194 11.2  4426.21  4454.67  4426.21  4454.67
 cp_cfm_power                       312  9.7     0.37     1.82  4117.37  4126.41
 cp_cfm_heevd                       441 10.2  3743.35  3749.83  3743.35  3749.83
 dbt_tas_mm_2                       289 15.0     0.00     0.01  3094.68  3094.71
 dbt_tas_mm_3T                      396 16.5     0.00     0.00   493.76  2913.41
 dbt_tas_mm_1N                      182 15.0     0.00     0.00   384.39  2375.60
 dbm_redistribute                  2394 15.8   371.72  1731.40   371.72  1731.40
 compute_mat_P_omega_calc_M_vir      90  9.0     0.00     0.00  1539.64  1539.65
 compute_mat_P_omega_calc_M_occ      90  9.0     2.71    13.06  1513.56  1513.58
 compute_Wc_real_space_tau_GW       260  9.0     0.00     0.01  1484.02  1495.73
 compute_mat_P_omega_calc_P_t        90  9.0     0.00     0.00  1489.66  1489.68
 convert_to_new_pgrid              3195 14.8    33.65   378.27   274.92  1333.60
 trafo_to_mo_and_kpoints             21  9.0     0.23     0.41  1299.83  1299.85
 compute_Wc_real_space_tau_GW_3     260 10.0     0.00     0.01  1184.20  1194.26
 mp2_ri_gpw_compute_in                1  5.0     0.01     0.02  1109.32  1109.33
 get_2c_integrals                     1  6.0     0.00     0.00  1026.95  1026.97
 dbt_copy                           947 10.8     0.06     0.29   500.55  1002.02
 dbt_reshape                        927 11.8   114.22   536.53   495.86   985.07
 mp_sum_l                          6490 14.1   722.06   861.63   722.06   861.63
 inversion_of_M_and_mult_with_c       1  7.0     0.00     0.00   720.63   720.67
 mp_waitall_2                      5492 16.8   438.67   617.29   438.67   617.29
 get_bandstruc_and_k_dependent_       1  6.0     0.00     0.01   565.53   565.55
 create_kp_and_calc_kp_orbitals       3  7.0     0.01     0.02   565.53   565.55
 cp_cfm_geeig                       129  8.0     0.01     0.02   551.60   552.83
 dbt_communicate_buffer             927 12.8     0.29     0.50   357.35   476.88
 dbt_crop                          1353 12.0    61.16   288.59    95.88   440.47
 dbt_tas_replicate                  927 15.0    59.24   210.81   278.18   384.80
 mp_max_i                          1977  9.7   355.59   366.42   355.59   366.42
 dbm_reserve_blocks                5047 16.4    71.91   325.30    71.91   325.30
 dbm_add                           1065 14.8    52.10   310.69    52.10   310.69
 -------------------------------------------------------------------------------

 The number of warnings for this run is : 2
 
 -------------------------------------------------------------------------------
  **** **** ******  **  PROGRAM ENDED AT                 2023-03-04 02:05:35.726
 ***** ** ***  *** **   PROGRAM RAN ON                          f0502.nhr.fau.de
 **    ****   ******    PROGRAM RAN BY                                  b165da10
 ***** **    ** ** **   PROGRAM PROCESS ID                               1368425
  **** **  *******  **  PROGRAM STOPPED IN /home/atuin/b165da/b165da10/15_WSe2/1
                                           1x11/2_reg_RI_1e-2
