 DBCSR| CPU Multiplication driver                                           XSMM (U)
 DBCSR| Multrec recursion limit                                              512 (U)
 DBCSR| Multiplication stack size                                           1000 (D)
 DBCSR| Maximum elements for images                                    UNLIMITED (U)
 DBCSR| Multiplicative factor virtual images                                   1 (U)
 DBCSR| Use multiplication densification                                       T (D)
 DBCSR| Multiplication size stacks                                             3 (U)
 DBCSR| Use memory pool for CPU allocation                                     F (U)
 DBCSR| Number of 3D layers                                               SINGLE (U)
 DBCSR| Use MPI memory allocation                                              F (U)
 DBCSR| Use RMA algorithm                                                      F (U)
 DBCSR| Use Communication thread                                               T (U)
 DBCSR| Communication thread load                                             75 (D)
 DBCSR| MPI: My process id                                                     0
 DBCSR| MPI: Number of processes                                             544
 DBCSR| OMP: Current number of threads                                         4
 DBCSR| OMP: Max number of threads                                             4
 DBCSR| Split modifier for TAS multiplication algorithm                  1.0E+00 (U)


  **** **** ******  **  PROGRAM STARTED AT               2023-03-03 17:33:11.003
 ***** ** ***  *** **   PROGRAM STARTED ON                      f0965.nhr.fau.de
 **    ****   ******    PROGRAM STARTED BY                              b165da10
 ***** **    ** ** **   PROGRAM PROCESS ID                                 46664
  **** **  *******  **  PROGRAM STARTED IN /home/atuin/b165da/b165da10/15_WSe2/1
                                           0x10/2_reg_RI_1e-2

 CP2K| version string:                 CP2K version 2023.1 (Development Version)
 CP2K| source code revision number:                                  git:383ec4c
 CP2K| cp2kflags: omp libint fftw3 libxc parallel mpi_f08 scalapack cosma xsmm p
 CP2K|            lumed2 spglib mkl libvdwxc
 CP2K| is freely available from                            https://www.cp2k.org/
 CP2K| Program compiled at                           Fri Feb 3 21:19:19 CET 2023
 CP2K| Program compiled on                                     fritz3.nhr.fau.de
 CP2K| Program compiled for                                                local
 CP2K| Data directory path    /home/atuin/b165da/b165da10/01_CP2K_compilations/0
 CP2K| Input file name                                               GW_WSe2.inp
 
 GLOBAL| Force Environment number                                              1
 GLOBAL| Basis set file name                                        BASIS_MOLOPT
 GLOBAL| Potential file name                                      GTH_POTENTIALS
 GLOBAL| MM Potential file name                                     MM_POTENTIAL
 GLOBAL| Coordinate file name                                      __STD_INPUT__
 GLOBAL| Method name                                                        CP2K
 GLOBAL| Project name                                                       MoS2
 GLOBAL| Run type                                                         ENERGY
 GLOBAL| FFT library                                                       FFTW3
 GLOBAL| Diagonalization library                                       ScaLAPACK
 GLOBAL| DGEMM library                                                      BLAS
 GLOBAL| Orthonormality check for eigenvectors                          DISABLED
 GLOBAL| Matrix multiplication library                                     COSMA
 GLOBAL| All-to-all communication in single precision                          F
 GLOBAL| FFTs using library dependent lengths                                  F
 GLOBAL| Grid backend                                                       AUTO
 GLOBAL| Global print level                                               MEDIUM
 GLOBAL| MPI I/O enabled                                                       T
 GLOBAL| Total number of message passing processes                           544
 GLOBAL| Number of threads for this process                                    4
 GLOBAL| This output is from process                                           0
 GLOBAL| Stack size for threads created by OpenMP (OMP_STACKSIZE)        default
 GLOBAL| CPU model name            Intel(R) Xeon(R) Platinum 8360Y CPU @ 2.40GHz
 GLOBAL| CPUID                                                              1003

 MEMORY| system memory details [Kb]
 MEMORY|                        rank 0           min           max       average
 MEMORY| MemTotal            263795712     263795704     263797860     263796154
 MEMORY| MemFree             256266516     246533316     256266516     251920990
 MEMORY| Buffers                   260           260          2648          2064
 MEMORY| Cached                2790964       2657032       2870104       2816911
 MEMORY| Slab                   538712        538712       9123360       4233454
 MEMORY| SReclaimable            81900         81900        152580        123662
 MEMORY| MemLikelyFree       259139640     249540052     259139640     254863628


 *** Fundamental physical constants (SI units) ***

 *** Literature: B. J. Mohr and B. N. Taylor,
 ***             CODATA recommended values of the fundamental physical
 ***             constants: 2006, Web Version 5.1
 ***             http://physics.nist.gov/constants

 Speed of light in vacuum [m/s]                             2.99792458000000E+08
 Magnetic constant or permeability of vacuum [N/A**2]       1.25663706143592E-06
 Electric constant or permittivity of vacuum [F/m]          8.85418781762039E-12
 Planck constant (h) [J*s]                                  6.62606896000000E-34
 Planck constant (h-bar) [J*s]                              1.05457162825177E-34
 Elementary charge [C]                                      1.60217648700000E-19
 Electron mass [kg]                                         9.10938215000000E-31
 Electron g factor [ ]                                     -2.00231930436220E+00
 Proton mass [kg]                                           1.67262163700000E-27
 Fine-structure constant                                    7.29735253760000E-03
 Rydberg constant [1/m]                                     1.09737315685270E+07
 Avogadro constant [1/mol]                                  6.02214179000000E+23
 Boltzmann constant [J/K]                                   1.38065040000000E-23
 Atomic mass unit [kg]                                      1.66053878200000E-27
 Bohr radius [m]                                            5.29177208590000E-11

 *** Conversion factors ***

 [u] -> [a.u.]                                              1.82288848426455E+03
 [Angstrom] -> [Bohr] = [a.u.]                              1.88972613288564E+00
 [a.u.] = [Bohr] -> [Angstrom]                              5.29177208590000E-01
 [a.u.] -> [s]                                              2.41888432650478E-17
 [a.u.] -> [fs]                                             2.41888432650478E-02
 [a.u.] -> [J]                                              4.35974393937059E-18
 [a.u.] -> [N]                                              8.23872205491840E-08
 [a.u.] -> [K]                                              3.15774647902944E+05
 [a.u.] -> [kJ/mol]                                         2.62549961709828E+03
 [a.u.] -> [kcal/mol]                                       6.27509468713739E+02
 [a.u.] -> [Pa]                                             2.94210107994716E+13
 [a.u.] -> [bar]                                            2.94210107994716E+08
 [a.u.] -> [atm]                                            2.90362800883016E+08
 [a.u.] -> [eV]                                             2.72113838565563E+01
 [a.u.] -> [Hz]                                             6.57968392072181E+15
 [a.u.] -> [1/cm] (wave numbers)                            2.19474631370540E+05
 [a.u./Bohr**2] -> [1/cm]                                   5.14048714338585E+03
 

 CELL_TOP| Volume [angstrom^3]:                                     14309.893302
 CELL_TOP| Vector a [angstrom    33.190     0.000     0.000   |a| =    33.190000
 CELL_TOP| Vector b [angstrom   -16.595    28.743     0.000   |b| =    33.190000
 CELL_TOP| Vector c [angstrom     0.000     0.000    15.000   |c| =    15.000000
 CELL_TOP| Angle (b,c), alpha [degree]:                                90.000000
 CELL_TOP| Angle (a,c), beta  [degree]:                                90.000000
 CELL_TOP| Angle (a,b), gamma [degree]:                               120.000000
 CELL_TOP| Numerically orthorhombic:                                          NO
 CELL_TOP| Periodicity                                                        XY

 CELL_UC| Volume [angstrom^3]:                                        143.098933
 CELL_UC| Vector a [angstrom]     3.319     0.000     0.000   |a| =     3.319000
 CELL_UC| Vector b [angstrom]    -1.659     2.874     0.000   |b| =     3.319000
 CELL_UC| Vector c [angstrom]     0.000     0.000    15.000   |c| =    15.000000
 CELL_UC| Angle (b,c), alpha [degree]:                                 90.000000
 CELL_UC| Angle (a,c), beta  [degree]:                                 90.000000
 CELL_UC| Angle (a,b), gamma [degree]:                                120.000000
 CELL_UC| Numerically orthorhombic:                                           NO
 CELL_UC| Periodicity                                                         XY
 natom =           3
 SIZE(atom_info%r, 2) =           0
 natom =           3
 SIZE(atom_info%r, 2) =           0
 natom =           3
 SIZE(atom_info%r, 2) =           0
 natom =           3
 SIZE(atom_info%r, 2) =           0
 natom =           3
 SIZE(atom_info%r, 2) =           0
 natom =           3
 SIZE(atom_info%r, 2) =           0
 natom =           3
 SIZE(atom_info%r, 2) =           0
 natom =           3
 SIZE(atom_info%r, 2) =           0
 natom =           3
 SIZE(atom_info%r, 2) =           0
 natom =           3
 SIZE(atom_info%r, 2) =           0
 natom =           3
 SIZE(atom_info%r, 2) =           0
 natom =           3
 SIZE(atom_info%r, 2) =           0
 natom =           3
 SIZE(atom_info%r, 2) =           0
 natom =           3
 SIZE(atom_info%r, 2) =           0
 natom =           3
 SIZE(atom_info%r, 2) =           0
 natom =           3
 SIZE(atom_info%r, 2) =           0
 natom =           3
 SIZE(atom_info%r, 2) =           0
 natom =           3
 SIZE(atom_info%r, 2) =           0
 natom =           3
 SIZE(atom_info%r, 2) =           0
 natom =           3
 SIZE(atom_info%r, 2) =           0
 natom =           3
 SIZE(atom_info%r, 2) =           0
 natom =           3
 SIZE(atom_info%r, 2) =           0
 natom =           3
 SIZE(atom_info%r, 2) =           0
 natom =           3
 SIZE(atom_info%r, 2) =           0
 natom =           3
 SIZE(atom_info%r, 2) =           0
 natom =           3
 SIZE(atom_info%r, 2) =           0
 natom =           3
 SIZE(atom_info%r, 2) =           0
 natom =           3
 SIZE(atom_info%r, 2) =           0
 natom =           3
 SIZE(atom_info%r, 2) =           0
 natom =           3
 SIZE(atom_info%r, 2) =           0
 natom =           3
 SIZE(atom_info%r, 2) =           0
 natom =           3
 SIZE(atom_info%r, 2) =           0
 natom =           3
 SIZE(atom_info%r, 2) =           0
 natom =           3
 SIZE(atom_info%r, 2) =           0
 natom =           3
 SIZE(atom_info%r, 2) =           0
 natom =           3
 SIZE(atom_info%r, 2) =           0
 natom =           3
 SIZE(atom_info%r, 2) =           0
 natom =           3
 SIZE(atom_info%r, 2) =           0
 natom =           3
 SIZE(atom_info%r, 2) =           0
 natom =           3
 SIZE(atom_info%r, 2) =           0
 natom =           3
 SIZE(atom_info%r, 2) =           0
 natom =           3
 SIZE(atom_info%r, 2) =           0
 natom =           3
 SIZE(atom_info%r, 2) =           0
 natom =           3
 SIZE(atom_info%r, 2) =           0
 natom =           3
 SIZE(atom_info%r, 2) =           0
 natom =           3
 SIZE(atom_info%r, 2) =           0
 natom =           3
 SIZE(atom_info%r, 2) =           0
 natom =           3
 SIZE(atom_info%r, 2) =           0
 natom =           3
 SIZE(atom_info%r, 2) =           0
 natom =           3
 SIZE(atom_info%r, 2) =           0
 natom =           3
 SIZE(atom_info%r, 2) =           0
 natom =           3
 SIZE(atom_info%r, 2) =           0
 natom =           3
 SIZE(atom_info%r, 2) =           0
 natom =           3
 SIZE(atom_info%r, 2) =           0
 natom =           3
 SIZE(atom_info%r, 2) =           0
 natom =           3
 SIZE(atom_info%r, 2) =           0
 natom =           3
 SIZE(atom_info%r, 2) =           0
 natom =           3
 SIZE(atom_info%r, 2) =           0
 natom =           3
 SIZE(atom_info%r, 2) =           0
 natom =           3
 SIZE(atom_info%r, 2) =           0
 natom =           3
 SIZE(atom_info%r, 2) =           0
 natom =           3
 SIZE(atom_info%r, 2) =           0
 natom =           3
 SIZE(atom_info%r, 2) =           0
 natom =           3
 SIZE(atom_info%r, 2) =           0
 natom =           3
 SIZE(atom_info%r, 2) =           0
 natom =           3
 SIZE(atom_info%r, 2) =           0
 natom =           3
 SIZE(atom_info%r, 2) =           0
 natom =           3
 SIZE(atom_info%r, 2) =           0
 natom =           3
 SIZE(atom_info%r, 2) =           0
 natom =           3
 SIZE(atom_info%r, 2) =           0
 natom =           3
 SIZE(atom_info%r, 2) =           0
 natom =           3
 SIZE(atom_info%r, 2) =           0
 natom =           3
 SIZE(atom_info%r, 2) =           0
 natom =           3
 SIZE(atom_info%r, 2) =           0
 natom =           3
 SIZE(atom_info%r, 2) =           0
 natom =           3
 SIZE(atom_info%r, 2) =           0
 natom =           3
 SIZE(atom_info%r, 2) =           0
 natom =           3
 SIZE(atom_info%r, 2) =           0
 natom =           3
 SIZE(atom_info%r, 2) =           0
 natom =           3
 SIZE(atom_info%r, 2) =           0
 natom =           3
 SIZE(atom_info%r, 2) =           0
 natom =           3
 SIZE(atom_info%r, 2) =           0
 natom =           3
 SIZE(atom_info%r, 2) =           0
 natom =           3
 SIZE(atom_info%r, 2) =           0
 natom =           3
 SIZE(atom_info%r, 2) =           0
 natom =           3
 SIZE(atom_info%r, 2) =           0
 natom =           3
 SIZE(atom_info%r, 2) =           0
 natom =           3
 SIZE(atom_info%r, 2) =           0
 natom =           3
 SIZE(atom_info%r, 2) =           0
 natom =           3
 SIZE(atom_info%r, 2) =           0
 natom =           3
 SIZE(atom_info%r, 2) =           0
 natom =           3
 SIZE(atom_info%r, 2) =           0
 natom =           3
 SIZE(atom_info%r, 2) =           0
 natom =           3
 SIZE(atom_info%r, 2) =           0
 natom =           3
 SIZE(atom_info%r, 2) =           0
 natom =           3
 SIZE(atom_info%r, 2) =           0
 natom =           3
 SIZE(atom_info%r, 2) =           0
 natom =           3
 SIZE(atom_info%r, 2) =           0
 natom =           3
 SIZE(atom_info%r, 2) =           0
 natom =           3
 SIZE(atom_info%r, 2) =           0
 natom =           3
 SIZE(atom_info%r, 2) =           0
 natom =           3
 SIZE(atom_info%r, 2) =           0
 natom =           3
 SIZE(atom_info%r, 2) =           0
 natom =           3
 SIZE(atom_info%r, 2) =           0
 natom =           3
 SIZE(atom_info%r, 2) =           0
 natom =           3
 SIZE(atom_info%r, 2) =           0
 natom =           3
 SIZE(atom_info%r, 2) =           0
 natom =           3
 SIZE(atom_info%r, 2) =           0
 natom =           3
 SIZE(atom_info%r, 2) =           0
 natom =           3
 SIZE(atom_info%r, 2) =           0
 natom =           3
 SIZE(atom_info%r, 2) =           0
 natom =           3
 SIZE(atom_info%r, 2) =           0
 natom =           3
 SIZE(atom_info%r, 2) =           0
 natom =           3
 SIZE(atom_info%r, 2) =           0
 natom =           3
 SIZE(atom_info%r, 2) =           0
 natom =           3
 SIZE(atom_info%r, 2) =           0
 natom =           3
 SIZE(atom_info%r, 2) =           0
 natom =           3
 SIZE(atom_info%r, 2) =           0
 natom =           3
 SIZE(atom_info%r, 2) =           0
 natom =           3
 SIZE(atom_info%r, 2) =           0
 natom =           3
 SIZE(atom_info%r, 2) =           0
 natom =           3
 SIZE(atom_info%r, 2) =           0
 natom =           3
 SIZE(atom_info%r, 2) =           0
 natom =           3
 SIZE(atom_info%r, 2) =           0
 natom =           3
 SIZE(atom_info%r, 2) =           0
 natom =           3
 SIZE(atom_info%r, 2) =           0
 natom =           3
 SIZE(atom_info%r, 2) =           0
 natom =           3
 SIZE(atom_info%r, 2) =           0
 natom =           3
 SIZE(atom_info%r, 2) =           0
 natom =           3
 SIZE(atom_info%r, 2) =           0
 natom =           3
 SIZE(atom_info%r, 2) =           0
 natom =           3
 SIZE(atom_info%r, 2) =           0
 natom =           3
 SIZE(atom_info%r, 2) =           0
 natom =           3
 SIZE(atom_info%r, 2) =           0
 natom =           3
 SIZE(atom_info%r, 2) =           0
 natom =           3
 SIZE(atom_info%r, 2) =           0
 natom =           3
 SIZE(atom_info%r, 2) =           0
 natom =           3
 SIZE(atom_info%r, 2) =           0
 natom =           3
 SIZE(atom_info%r, 2) =           0
 natom =           3
 SIZE(atom_info%r, 2) =           0
 natom =           3
 SIZE(atom_info%r, 2) =           0
 natom =           3
 SIZE(atom_info%r, 2) =           0
 natom =           3
 SIZE(atom_info%r, 2) =           0
 natom =           3
 SIZE(atom_info%r, 2) =           0
 natom =           3
 SIZE(atom_info%r, 2) =           0
 natom =           3
 SIZE(atom_info%r, 2) =           0
 natom =           3
 SIZE(atom_info%r, 2) =           0
 natom =           3
 SIZE(atom_info%r, 2) =           0
 natom =           3
 SIZE(atom_info%r, 2) =           0
 natom =           3
 SIZE(atom_info%r, 2) =           0
 natom =           3
 SIZE(atom_info%r, 2) =           0
 natom =           3
 SIZE(atom_info%r, 2) =           0
 natom =           3
 SIZE(atom_info%r, 2) =           0
 natom =           3
 SIZE(atom_info%r, 2) =           0
 natom =           3
 SIZE(atom_info%r, 2) =           0
 natom =           3
 SIZE(atom_info%r, 2) =           0
 natom =           3
 SIZE(atom_info%r, 2) =           0
 natom =           3
 SIZE(atom_info%r, 2) =           0
 natom =           3
 SIZE(atom_info%r, 2) =           0
 natom =           3
 SIZE(atom_info%r, 2) =           0
 natom =           3
 SIZE(atom_info%r, 2) =           0
 natom =           3
 SIZE(atom_info%r, 2) =           0
 natom =           3
 SIZE(atom_info%r, 2) =           0
 natom =           3
 SIZE(atom_info%r, 2) =           0
 natom =           3
 SIZE(atom_info%r, 2) =           0
 natom =           3
 SIZE(atom_info%r, 2) =           0
 natom =           3
 SIZE(atom_info%r, 2) =           0
 natom =           3
 SIZE(atom_info%r, 2) =           0
 natom =           3
 SIZE(atom_info%r, 2) =           0
 natom =           3
 SIZE(atom_info%r, 2) =           0
 natom =           3
 SIZE(atom_info%r, 2) =           0
 natom =           3
 SIZE(atom_info%r, 2) =           0
 natom =           3
 SIZE(atom_info%r, 2) =           0
 natom =           3
 SIZE(atom_info%r, 2) =           0
 natom =           3
 SIZE(atom_info%r, 2) =           0
 natom =           3
 SIZE(atom_info%r, 2) =           0
 natom =           3
 SIZE(atom_info%r, 2) =           0
 natom =           3
 SIZE(atom_info%r, 2) =           0
 natom =           3
 SIZE(atom_info%r, 2) =           0
 natom =           3
 SIZE(atom_info%r, 2) =           0
 natom =           3
 SIZE(atom_info%r, 2) =           0
 natom =           3
 SIZE(atom_info%r, 2) =           0
 natom =           3
 SIZE(atom_info%r, 2) =           0
 natom =           3
 SIZE(atom_info%r, 2) =           0
 natom =           3
 SIZE(atom_info%r, 2) =           0
 natom =           3
 SIZE(atom_info%r, 2) =           0
 natom =           3
 SIZE(atom_info%r, 2) =           0
 natom =           3
 SIZE(atom_info%r, 2) =           0
 natom =           3
 SIZE(atom_info%r, 2) =           0
 natom =           3
 SIZE(atom_info%r, 2) =           0
 natom =           3
 SIZE(atom_info%r, 2) =           0
 natom =           3
 SIZE(atom_info%r, 2) =           0
 natom =           3
 SIZE(atom_info%r, 2) =           0
 natom =           3
 SIZE(atom_info%r, 2) =           0
 natom =           3
 SIZE(atom_info%r, 2) =           0
 natom =           3
 SIZE(atom_info%r, 2) =           0
 natom =           3
 SIZE(atom_info%r, 2) =           0
 natom =           3
 SIZE(atom_info%r, 2) =           0
 natom =           3
 SIZE(atom_info%r, 2) =           0
 natom =           3
 SIZE(atom_info%r, 2) =           0
 natom =           3
 SIZE(atom_info%r, 2) =           0
 natom =           3
 SIZE(atom_info%r, 2) =           0
 natom =           3
 SIZE(atom_info%r, 2) =           0
 natom =           3
 SIZE(atom_info%r, 2) =           0
 natom =           3
 SIZE(atom_info%r, 2) =           0
 natom =           3
 SIZE(atom_info%r, 2) =           0
 natom =           3
 SIZE(atom_info%r, 2) =           0
 natom =           3
 SIZE(atom_info%r, 2) =           0
 natom =           3
 SIZE(atom_info%r, 2) =           0
 natom =           3
 SIZE(atom_info%r, 2) =           0
 natom =           3
 SIZE(atom_info%r, 2) =           0
 natom =           3
 SIZE(atom_info%r, 2) =           0
 natom =           3
 SIZE(atom_info%r, 2) =           0
 natom =           3
 SIZE(atom_info%r, 2) =           0
 natom =           3
 SIZE(atom_info%r, 2) =           0
 natom =           3
 SIZE(atom_info%r, 2) =           0
 natom =           3
 SIZE(atom_info%r, 2) =           0
 natom =           3
 SIZE(atom_info%r, 2) =           0
 natom =           3
 SIZE(atom_info%r, 2) =           0
 natom =           3
 SIZE(atom_info%r, 2) =           0
 natom =           3
 SIZE(atom_info%r, 2) =           0
 natom =           3
 SIZE(atom_info%r, 2) =           0
 natom =           3
 SIZE(atom_info%r, 2) =           0
 natom =           3
 SIZE(atom_info%r, 2) =           0
 natom =           3
 SIZE(atom_info%r, 2) =           0
 natom =           3
 SIZE(atom_info%r, 2) =           0
 natom =           3
 SIZE(atom_info%r, 2) =           0
 natom =           3
 SIZE(atom_info%r, 2) =           0
 natom =           3
 SIZE(atom_info%r, 2) =           0
 natom =           3
 SIZE(atom_info%r, 2) =           0
 natom =           3
 SIZE(atom_info%r, 2) =           0
 natom =           3
 SIZE(atom_info%r, 2) =           0
 natom =           3
 SIZE(atom_info%r, 2) =           0
 natom =           3
 SIZE(atom_info%r, 2) =           0
 natom =           3
 SIZE(atom_info%r, 2) =           0
 natom =           3
 SIZE(atom_info%r, 2) =           0
 natom =           3
 SIZE(atom_info%r, 2) =           0
 natom =           3
 SIZE(atom_info%r, 2) =           0
 natom =           3
 SIZE(atom_info%r, 2) =           0
 natom =           3
 SIZE(atom_info%r, 2) =           0
 natom =           3
 SIZE(atom_info%r, 2) =           0
 natom =           3
 SIZE(atom_info%r, 2) =           0
 natom =           3
 SIZE(atom_info%r, 2) =           0
 natom =           3
 SIZE(atom_info%r, 2) =           0
 natom =           3
 SIZE(atom_info%r, 2) =           0
 natom =           3
 SIZE(atom_info%r, 2) =           0
 natom =           3
 SIZE(atom_info%r, 2) =           0
 natom =           3
 SIZE(atom_info%r, 2) =           0
 natom =           3
 SIZE(atom_info%r, 2) =           0
 natom =           3
 SIZE(atom_info%r, 2) =           0
 natom =           3
 SIZE(atom_info%r, 2) =           0
 natom =           3
 SIZE(atom_info%r, 2) =           0
 natom =           3
 SIZE(atom_info%r, 2) =           0
 natom =           3
 SIZE(atom_info%r, 2) =           0
 natom =           3
 SIZE(atom_info%r, 2) =           0
 natom =           3
 SIZE(atom_info%r, 2) =           0
 natom =           3
 SIZE(atom_info%r, 2) =           0
 natom =           3
 SIZE(atom_info%r, 2) =           0
 natom =           3
 SIZE(atom_info%r, 2) =           0
 natom =           3
 SIZE(atom_info%r, 2) =           0
 natom =           3
 SIZE(atom_info%r, 2) =           0
 natom =           3
 SIZE(atom_info%r, 2) =           0
 natom =           3
 SIZE(atom_info%r, 2) =           0
 natom =           3
 SIZE(atom_info%r, 2) =           0
 natom =           3
 SIZE(atom_info%r, 2) =           0
 natom =           3
 SIZE(atom_info%r, 2) =           0
 natom =           3
 SIZE(atom_info%r, 2) =           0
 natom =           3
 SIZE(atom_info%r, 2) =           0
 natom =           3
 SIZE(atom_info%r, 2) =           0
 natom =           3
 SIZE(atom_info%r, 2) =           0
 natom =           3
 SIZE(atom_info%r, 2) =           0
 natom =           3
 SIZE(atom_info%r, 2) =           0
 natom =           3
 SIZE(atom_info%r, 2) =           0
 natom =           3
 SIZE(atom_info%r, 2) =           0
 natom =           3
 SIZE(atom_info%r, 2) =           0
 natom =           3
 SIZE(atom_info%r, 2) =           0
 natom =           3
 SIZE(atom_info%r, 2) =           0
 natom =           3
 SIZE(atom_info%r, 2) =           0
 natom =           3
 SIZE(atom_info%r, 2) =           0
 natom =           3
 SIZE(atom_info%r, 2) =           0
 natom =           3
 SIZE(atom_info%r, 2) =           0
 natom =           3
 SIZE(atom_info%r, 2) =           0
 natom =           3
 SIZE(atom_info%r, 2) =           0
 natom =           3
 SIZE(atom_info%r, 2) =           0
 natom =           3
 SIZE(atom_info%r, 2) =           0
 natom =           3
 SIZE(atom_info%r, 2) =           0
 natom =           3
 SIZE(atom_info%r, 2) =           0
 natom =           3
 SIZE(atom_info%r, 2) =           0
 natom =           3
 SIZE(atom_info%r, 2) =           0
 natom =           3
 SIZE(atom_info%r, 2) =           0
 natom =           3
 SIZE(atom_info%r, 2) =           0
 natom =           3
 SIZE(atom_info%r, 2) =           0
 natom =           3
 SIZE(atom_info%r, 2) =           0
 natom =           3
 SIZE(atom_info%r, 2) =           0
 natom =           3
 SIZE(atom_info%r, 2) =           0
 natom =           3
 SIZE(atom_info%r, 2) =           0
 natom =           3
 SIZE(atom_info%r, 2) =           0
 natom =           3
 SIZE(atom_info%r, 2) =           0
 natom =           3
 SIZE(atom_info%r, 2) =           0
 natom =           3
 SIZE(atom_info%r, 2) =           0
 natom =           3
 SIZE(atom_info%r, 2) =           0
 natom =           3
 SIZE(atom_info%r, 2) =           0
 natom =           3
 SIZE(atom_info%r, 2) =           0
 natom =           3
 SIZE(atom_info%r, 2) =           0
 natom =           3
 SIZE(atom_info%r, 2) =           0
 natom =           3
 SIZE(atom_info%r, 2) =           0
 natom =           3
 SIZE(atom_info%r, 2) =           0
 natom =           3
 SIZE(atom_info%r, 2) =           0
 natom =           3
 SIZE(atom_info%r, 2) =           0
 natom =           3
 SIZE(atom_info%r, 2) =           0
 natom =           3
 SIZE(atom_info%r, 2) =           0
 natom =           3
 SIZE(atom_info%r, 2) =           0
 natom =           3
 SIZE(atom_info%r, 2) =           0
 natom =           3
 SIZE(atom_info%r, 2) =           0
 natom =           3
 SIZE(atom_info%r, 2) =           0
 natom =           3
 SIZE(atom_info%r, 2) =           0
 natom =           3
 SIZE(atom_info%r, 2) =           0
 natom =           3
 SIZE(atom_info%r, 2) =           0
 natom =           3
 SIZE(atom_info%r, 2) =           0
 natom =           3
 SIZE(atom_info%r, 2) =           0
 natom =           3
 SIZE(atom_info%r, 2) =           0
 natom =           3
 SIZE(atom_info%r, 2) =           0
 natom =           3
 SIZE(atom_info%r, 2) =           0
 natom =           3
 SIZE(atom_info%r, 2) =           0
 natom =           3
 SIZE(atom_info%r, 2) =           0
 natom =           3
 SIZE(atom_info%r, 2) =           0
 natom =           3
 SIZE(atom_info%r, 2) =           0
 natom =           3
 SIZE(atom_info%r, 2) =           0
 natom =           3
 SIZE(atom_info%r, 2) =           0
 natom =           3
 SIZE(atom_info%r, 2) =           0
 natom =           3
 SIZE(atom_info%r, 2) =           0
 natom =           3
 SIZE(atom_info%r, 2) =           0
 natom =           3
 SIZE(atom_info%r, 2) =           0
 natom =           3
 SIZE(atom_info%r, 2) =           0
 natom =           3
 SIZE(atom_info%r, 2) =           0
 natom =           3
 SIZE(atom_info%r, 2) =           0
 natom =           3
 SIZE(atom_info%r, 2) =           0
 natom =           3
 SIZE(atom_info%r, 2) =           0
 natom =           3
 SIZE(atom_info%r, 2) =           0
 natom =           3
 SIZE(atom_info%r, 2) =           0
 natom =           3
 SIZE(atom_info%r, 2) =           0
 natom =           3
 SIZE(atom_info%r, 2) =           0
 natom =           3
 SIZE(atom_info%r, 2) =           0
 natom =           3
 SIZE(atom_info%r, 2) =           0
 natom =           3
 SIZE(atom_info%r, 2) =           0
 natom =           3
 SIZE(atom_info%r, 2) =           0
 natom =           3
 SIZE(atom_info%r, 2) =           0
 natom =           3
 SIZE(atom_info%r, 2) =           0
 natom =           3
 SIZE(atom_info%r, 2) =           0
 natom =           3
 SIZE(atom_info%r, 2) =           0
 natom =           3
 SIZE(atom_info%r, 2) =           0
 natom =           3
 SIZE(atom_info%r, 2) =           0
 natom =           3
 SIZE(atom_info%r, 2) =           0
 natom =           3
 SIZE(atom_info%r, 2) =           0
 natom =           3
 SIZE(atom_info%r, 2) =           0
 natom =           3
 SIZE(atom_info%r, 2) =           0
 natom =           3
 SIZE(atom_info%r, 2) =           0
 natom =           3
 SIZE(atom_info%r, 2) =           0
 natom =           3
 SIZE(atom_info%r, 2) =           0
 natom =           3
 SIZE(atom_info%r, 2) =           0
 natom =           3
 SIZE(atom_info%r, 2) =           0
 natom =           3
 SIZE(atom_info%r, 2) =           0
 natom =           3
 SIZE(atom_info%r, 2) =           0
 natom =           3
 SIZE(atom_info%r, 2) =           0
 natom =           3
 SIZE(atom_info%r, 2) =           0
 natom =           3
 SIZE(atom_info%r, 2) =           0
 natom =           3
 SIZE(atom_info%r, 2) =           0
 natom =           3
 SIZE(atom_info%r, 2) =           0
 natom =           3
 SIZE(atom_info%r, 2) =           0
 natom =           3
 SIZE(atom_info%r, 2) =           0
 natom =           3
 SIZE(atom_info%r, 2) =           0
 natom =           3
 SIZE(atom_info%r, 2) =           0
 natom =           3
 SIZE(atom_info%r, 2) =           0
 natom =           3
 SIZE(atom_info%r, 2) =           0
 natom =           3
 SIZE(atom_info%r, 2) =           0
 natom =           3
 SIZE(atom_info%r, 2) =           0
 natom =           3
 SIZE(atom_info%r, 2) =           0
 natom =           3
 SIZE(atom_info%r, 2) =           0
 natom =           3
 SIZE(atom_info%r, 2) =           0
 natom =           3
 SIZE(atom_info%r, 2) =           0
 natom =           3
 SIZE(atom_info%r, 2) =           0
 natom =           3
 SIZE(atom_info%r, 2) =           0
 natom =           3
 SIZE(atom_info%r, 2) =           0
 natom =           3
 SIZE(atom_info%r, 2) =           0
 natom =           3
 SIZE(atom_info%r, 2) =           0
 natom =           3
 SIZE(atom_info%r, 2) =           0
 natom =           3
 SIZE(atom_info%r, 2) =           0
 natom =           3
 SIZE(atom_info%r, 2) =           0
 natom =           3
 SIZE(atom_info%r, 2) =           0
 natom =           3
 SIZE(atom_info%r, 2) =           0
 natom =           3
 SIZE(atom_info%r, 2) =           0
 natom =           3
 SIZE(atom_info%r, 2) =           0
 natom =           3
 SIZE(atom_info%r, 2) =           0
 natom =           3
 SIZE(atom_info%r, 2) =           0
 natom =           3
 SIZE(atom_info%r, 2) =           0
 natom =           3
 SIZE(atom_info%r, 2) =           0
 natom =           3
 SIZE(atom_info%r, 2) =           0
 natom =           3
 SIZE(atom_info%r, 2) =           0
 natom =           3
 SIZE(atom_info%r, 2) =           0
 natom =           3
 SIZE(atom_info%r, 2) =           0
 natom =           3
 SIZE(atom_info%r, 2) =           0
 natom =           3
 SIZE(atom_info%r, 2) =           0
 natom =           3
 SIZE(atom_info%r, 2) =           0
 natom =           3
 SIZE(atom_info%r, 2) =           0
 natom =           3
 SIZE(atom_info%r, 2) =           0
 natom =           3
 SIZE(atom_info%r, 2) =           0
 natom =           3
 SIZE(atom_info%r, 2) =           0
 natom =           3
 SIZE(atom_info%r, 2) =           0
 natom =           3
 SIZE(atom_info%r, 2) =           0
 natom =           3
 SIZE(atom_info%r, 2) =           0
 natom =           3
 SIZE(atom_info%r, 2) =           0
 natom =           3
 SIZE(atom_info%r, 2) =           0
 natom =           3
 SIZE(atom_info%r, 2) =           0
 natom =           3
 SIZE(atom_info%r, 2) =           0
 natom =           3
 SIZE(atom_info%r, 2) =           0
 natom =           3
 SIZE(atom_info%r, 2) =           0
 natom =           3
 SIZE(atom_info%r, 2) =           0
 natom =           3
 SIZE(atom_info%r, 2) =           0
 natom =           3
 SIZE(atom_info%r, 2) =           0
 natom =           3
 SIZE(atom_info%r, 2) =           0
 natom =           3
 SIZE(atom_info%r, 2) =           0
 natom =           3
 SIZE(atom_info%r, 2) =           0
 natom =           3
 SIZE(atom_info%r, 2) =           0
 natom =           3
 SIZE(atom_info%r, 2) =           0
 natom =           3
 SIZE(atom_info%r, 2) =           0
 natom =           3
 SIZE(atom_info%r, 2) =           0
 natom =           3
 SIZE(atom_info%r, 2) =           0
 natom =           3
 natom =           3
 SIZE(atom_info%r, 2) =           0
 natom =           3
 SIZE(atom_info%r, 2) =           0
 natom =           3
 SIZE(atom_info%r, 2) =           0
 natom =           3
 SIZE(atom_info%r, 2) =           0
 natom =           3
 SIZE(atom_info%r, 2) =           0
 natom =           3
 SIZE(atom_info%r, 2) =           0
 natom =           3
 SIZE(atom_info%r, 2) =           0
 natom =           3
 SIZE(atom_info%r, 2) =           0
 natom =           3
 SIZE(atom_info%r, 2) =           0
 natom =           3
 SIZE(atom_info%r, 2) =           0
 natom =           3
 SIZE(atom_info%r, 2) =           0
 natom =           3
 SIZE(atom_info%r, 2) =           0
 natom =           3
 SIZE(atom_info%r, 2) =           0
 natom =           3
 SIZE(atom_info%r, 2) =           0
 SIZE(atom_info%r, 2) =           0
 natom =           3
 SIZE(atom_info%r, 2) =           0
 natom =           3
 SIZE(atom_info%r, 2) =           0
 natom =           3
 SIZE(atom_info%r, 2) =           0
 natom =           3
 SIZE(atom_info%r, 2) =           0
 natom =           3
 SIZE(atom_info%r, 2) =           0
 natom =           3
 SIZE(atom_info%r, 2) =           0
 natom =           3
 SIZE(atom_info%r, 2) =           0
 natom =           3
 SIZE(atom_info%r, 2) =           0
 natom =           3
 SIZE(atom_info%r, 2) =           0
 natom =           3
 SIZE(atom_info%r, 2) =           0
 natom =           3
 SIZE(atom_info%r, 2) =           0
 natom =           3
 SIZE(atom_info%r, 2) =           0
 natom =           3
 SIZE(atom_info%r, 2) =           0
 natom =           3
 SIZE(atom_info%r, 2) =           0
 natom =           3
 SIZE(atom_info%r, 2) =           0
 natom =           3
 SIZE(atom_info%r, 2) =           0
 natom =           3
 SIZE(atom_info%r, 2) =           0
 natom =           3
 SIZE(atom_info%r, 2) =           0
 natom =           3
 SIZE(atom_info%r, 2) =           0
 natom =           3
 SIZE(atom_info%r, 2) =           0
 natom =           3
 SIZE(atom_info%r, 2) =           0
 natom =           3
 SIZE(atom_info%r, 2) =           0
 natom =           3
 SIZE(atom_info%r, 2) =           0
 natom =           3
 SIZE(atom_info%r, 2) =           0
 natom =           3
 SIZE(atom_info%r, 2) =           0
 natom =           3
 SIZE(atom_info%r, 2) =           0
 natom =           3
 SIZE(atom_info%r, 2) =           0
 natom =           3
 SIZE(atom_info%r, 2) =           0
 natom =           3
 SIZE(atom_info%r, 2) =           0
 natom =           3
 SIZE(atom_info%r, 2) =           0
 natom =           3
 SIZE(atom_info%r, 2) =           0
 natom =           3
 SIZE(atom_info%r, 2) =           0
 natom =           3
 SIZE(atom_info%r, 2) =           0
 natom =           3
 SIZE(atom_info%r, 2) =           0
 natom =           3
 SIZE(atom_info%r, 2) =           0
 natom =           3
 SIZE(atom_info%r, 2) =           0
 natom =           3
 SIZE(atom_info%r, 2) =           0
 natom =           3
 SIZE(atom_info%r, 2) =           0
 natom =           3
 SIZE(atom_info%r, 2) =           0
 natom =           3
 SIZE(atom_info%r, 2) =           0
 natom =           3
 SIZE(atom_info%r, 2) =           0
 natom =           3
 SIZE(atom_info%r, 2) =           0
 natom =           3
 SIZE(atom_info%r, 2) =           0
 natom =           3
 SIZE(atom_info%r, 2) =           0
 natom =           3
 SIZE(atom_info%r, 2) =           0
 natom =           3
 SIZE(atom_info%r, 2) =           0
 natom =           3
 SIZE(atom_info%r, 2) =           0
 natom =           3
 SIZE(atom_info%r, 2) =           0
 natom =           3
 SIZE(atom_info%r, 2) =           0
 natom =           3
 SIZE(atom_info%r, 2) =           0
 natom =           3
 SIZE(atom_info%r, 2) =           0
 natom =           3
 SIZE(atom_info%r, 2) =           0
 natom =           3
 SIZE(atom_info%r, 2) =           0
 natom =           3
 SIZE(atom_info%r, 2) =           0
 natom =           3
 SIZE(atom_info%r, 2) =           0
 natom =           3
 SIZE(atom_info%r, 2) =           0
 natom =           3
 SIZE(atom_info%r, 2) =           0
 natom =           3
 SIZE(atom_info%r, 2) =           0
 natom =           3
 SIZE(atom_info%r, 2) =           0
 natom =           3
 SIZE(atom_info%r, 2) =           0
 natom =           3
 SIZE(atom_info%r, 2) =           0
 natom =           3
 SIZE(atom_info%r, 2) =           0
 natom =           3
 SIZE(atom_info%r, 2) =           0
 natom =           3
 SIZE(atom_info%r, 2) =           0
 natom =           3
 SIZE(atom_info%r, 2) =           0
 natom =           3
 SIZE(atom_info%r, 2) =           0
 natom =           3
 SIZE(atom_info%r, 2) =           0
 natom =           3
 SIZE(atom_info%r, 2) =           0
 natom =           3
 SIZE(atom_info%r, 2) =           0
 natom =           3
 SIZE(atom_info%r, 2) =           0
 natom =           3
 SIZE(atom_info%r, 2) =           0
 natom =           3
 SIZE(atom_info%r, 2) =           0
 natom =           3
 SIZE(atom_info%r, 2) =           0
 natom =           3
 SIZE(atom_info%r, 2) =           0
 natom =           3
 SIZE(atom_info%r, 2) =           0
 natom =           3
 SIZE(atom_info%r, 2) =           0
 natom =           3
 SIZE(atom_info%r, 2) =           0
 natom =           3
 SIZE(atom_info%r, 2) =           0
 natom =           3
 SIZE(atom_info%r, 2) =           0
 natom =           3
 SIZE(atom_info%r, 2) =           0
 natom =           3
 SIZE(atom_info%r, 2) =           0
 natom =           3
 SIZE(atom_info%r, 2) =           0
 natom =           3
 SIZE(atom_info%r, 2) =           0
 natom =           3
 SIZE(atom_info%r, 2) =           0
 natom =           3
 SIZE(atom_info%r, 2) =           0
 natom =           3
 SIZE(atom_info%r, 2) =           0
 natom =           3
 SIZE(atom_info%r, 2) =           0
 natom =           3
 SIZE(atom_info%r, 2) =           0
 natom =           3
 SIZE(atom_info%r, 2) =           0
 natom =           3
 SIZE(atom_info%r, 2) =           0
 natom =           3
 SIZE(atom_info%r, 2) =           0
 natom =           3
 SIZE(atom_info%r, 2) =           0
 natom =           3
 SIZE(atom_info%r, 2) =           0
 natom =           3
 SIZE(atom_info%r, 2) =           0
 natom =           3
 SIZE(atom_info%r, 2) =           0
 natom =           3
 SIZE(atom_info%r, 2) =           0
 natom =           3
 SIZE(atom_info%r, 2) =           0
 natom =           3
 SIZE(atom_info%r, 2) =           0
 natom =           3
 SIZE(atom_info%r, 2) =           0
 natom =           3
 SIZE(atom_info%r, 2) =           0
 natom =           3
 SIZE(atom_info%r, 2) =           0
 natom =           3
 SIZE(atom_info%r, 2) =           0
 
 GENERATE|  Preliminary Number of Bonds generated:                             0
 GENERATE|  Achieved consistency in connectivity generation.

 CELL| Volume [angstrom^3]:                                         14309.893302
 CELL| Vector a [angstrom]:      33.190     0.000     0.000   |a| =    33.190000
 CELL| Vector b [angstrom]:     -16.595    28.743     0.000   |b| =    33.190000
 CELL| Vector c [angstrom]:       0.000     0.000    15.000   |c| =    15.000000
 CELL| Angle (b,c), alpha [degree]:                                    90.000000
 CELL| Angle (a,c), beta  [degree]:                                    90.000000
 CELL| Angle (a,b), gamma [degree]:                                   120.000000
 CELL| Numerically orthorhombic:                                              NO
 CELL| Periodicity                                                            XY

 CELL_REF| Volume [angstrom^3]:                                     14309.893302
 CELL_REF| Vector a [angstrom    33.190     0.000     0.000   |a| =    33.190000
 CELL_REF| Vector b [angstrom   -16.595    28.743     0.000   |b| =    33.190000
 CELL_REF| Vector c [angstrom     0.000     0.000    15.000   |c| =    15.000000
 CELL_REF| Angle (b,c), alpha [degree]:                                90.000000
 CELL_REF| Angle (a,c), beta  [degree]:                                90.000000
 CELL_REF| Angle (a,b), gamma [degree]:                               120.000000
 CELL_REF| Numerically orthorhombic:                                          NO
 CELL_REF| Periodicity                                                        XY

 *******************************************************************************
 *******************************************************************************
 **                                                                           **
 **     #####                         ##              ##                      **
 **    ##   ##            ##          ##              ##                      **
 **   ##     ##                       ##            ######                    **
 **   ##     ##  ##   ##  ##   #####  ##  ##   ####   ##    #####    #####    **
 **   ##     ##  ##   ##  ##  ##      ## ##   ##      ##   ##   ##  ##   ##   **
 **   ##  ## ##  ##   ##  ##  ##      ####     ###    ##   ######   ######    **
 **    ##  ###   ##   ##  ##  ##      ## ##      ##   ##   ##       ##        **
 **     #######   #####   ##   #####  ##  ##  ####    ##    #####   ##        **
 **           ##                                                    ##        **
 **                                                                           **
 **                                                ... make the atoms dance   **
 **                                                                           **
 **            Copyright (C) by CP2K developers group (2000-2023)             **
 **                      J. Chem. Phys. 152, 194103 (2020)                    **
 **                                                                           **
 *******************************************************************************

 DFT| Spin restricted Kohn-Sham (RKS) calculation                            RKS
 DFT| Multiplicity                                                             1
 DFT| Number of spin states                                                    1
 DFT| Charge                                                                   0
 DFT| Self-interaction correction (SIC)                                       NO
 DFT| Cutoffs: density                                              1.000000E-10
 DFT|          gradient                                             1.000000E-10
 DFT|          tau                                                  1.000000E-10
 DFT|          cutoff_smoothing_range                               0.000000E+00
 DFT| XC density smoothing                                                  NONE
 DFT| XC derivatives                                                          PW

 FUNCTIONAL| PADE:
 FUNCTIONAL| S. Goedecker, M. Teter and J. Hutter, Phys. Rev. B 54, 1703 (1996) 


 QS| Method:                                                                 GPW
 QS| Density plane wave grid type                        NON-SPHERICAL FULLSPACE
 QS| Number of grid levels:                                                    4
 QS| Density cutoff [a.u.]:                                                250.0
 QS| Multi grid cutoff [a.u.]: 1) grid level                               250.0
 QS|                           2) grid level                                83.3
 QS|                           3) grid level                                27.8
 QS|                           4) grid level                                 9.3
 QS| Grid level progression factor:                                          3.0
 QS| Relative density cutoff [a.u.]:                                        50.0
 QS| Interaction thresholds: eps_pgf_orb:                                1.0E-40
 QS|                         eps_filter_matrix:                          0.0E+00
 QS|                         eps_core_charge:                            1.0E-42
 QS|                         eps_rho_gspace:                             1.0E-40
 QS|                         eps_rho_rspace:                             1.0E-40
 QS|                         eps_gvg_rspace:                             1.0E-20
 QS|                         eps_ppl:                                    1.0E-02
 QS|                         eps_ppnl:                                   1.0E-22


 ATOMIC KIND INFORMATION

  1. Atomic kind: W                                     Number of atoms:     100

     Orbital Basis Set                               TZVP-MOLOPT-SR-GTH_robust_1

       Number of orbital shell sets:                                           1
       Number of orbital shells:                                              11
       Number of primitive Cartesian functions:                                7
       Number of Cartesian basis functions:                                   41
       Number of spherical basis functions:                                   35
       Norm type:                                                              2

       Normalised Cartesian orbitals:

                        Set   Shell   Orbital            Exponent    Coefficient

                          1       1    2s                3.103254       0.432128
                                                         2.893835       0.497697
                                                         1.106151      -0.752121
                                                         0.501100      -0.216922
                                                         0.214447       0.032823
                                                         0.120000      -0.061173
                                                         0.140000       0.053490

                          1       2    3s                3.103254      -0.813729
                                                         2.893835       0.639864
                                                         1.106151       0.039972
                                                         0.501100      -0.059528
                                                         0.214447       0.077002
                                                         0.120000       0.481432
                                                         0.140000      -0.420972

                          1       3    4s                3.103254       1.541003
                                                         2.893835      -0.927602
                                                         1.106151      -0.272969
                                                         0.501100       0.064402
                                                         0.214447      -0.275240
                                                         0.120000       0.981259
                                                         0.140000      -0.858027

                          1       4    5s                3.103254       1.221199
                                                         2.893835      -1.384344
                                                         1.106151       0.313815
                                                         0.501100      -0.289021
                                                         0.214447       0.251699
                                                         0.120000       0.180363
                                                         0.140000      -0.157712

                          1       5    3px               3.103254       6.587488
                                                         2.893835      -5.430631
                                                         1.106151      -0.972560
                                                         0.501100      -0.261614
                                                         0.214447      -0.013936
                                                         0.120000       0.008777
                                                         0.140000      -0.008290
                          1       5    3py               3.103254       6.587488
                                                         2.893835      -5.430631
                                                         1.106151      -0.972560
                                                         0.501100      -0.261614
                                                         0.214447      -0.013936
                                                         0.120000       0.008777
                                                         0.140000      -0.008290
                          1       5    3pz               3.103254       6.587488
                                                         2.893835      -5.430631
                                                         1.106151      -0.972560
                                                         0.501100      -0.261614
                                                         0.214447      -0.013936
                                                         0.120000       0.008777
                                                         0.140000      -0.008290

                          1       6    4px               3.103254      -0.215503
                                                         2.893835       0.319008
                                                         1.106151      -0.250093
                                                         0.501100      -0.016350
                                                         0.214447       0.058331
                                                         0.120000       0.336378
                                                         0.140000      -0.317701
                          1       6    4py               3.103254      -0.215503
                                                         2.893835       0.319008
                                                         1.106151      -0.250093
                                                         0.501100      -0.016350
                                                         0.214447       0.058331
                                                         0.120000       0.336378
                                                         0.140000      -0.317701
                          1       6    4pz               3.103254      -0.215503
                                                         2.893835       0.319008
                                                         1.106151      -0.250093
                                                         0.501100      -0.016350
                                                         0.214447       0.058331
                                                         0.120000       0.336378
                                                         0.140000      -0.317701

                          1       7    5px               3.103254       1.477813
                                                         2.893835      -1.135541
                                                         1.106151       1.380857
                                                         0.501100       0.146858
                                                         0.214447      -0.336829
                                                         0.120000       0.360608
                                                         0.140000      -0.340586
                          1       7    5py               3.103254       1.477813
                                                         2.893835      -1.135541
                                                         1.106151       1.380857
                                                         0.501100       0.146858
                                                         0.214447      -0.336829
                                                         0.120000       0.360608
                                                         0.140000      -0.340586
                          1       7    5pz               3.103254       1.477813
                                                         2.893835      -1.135541
                                                         1.106151       1.380857
                                                         0.501100       0.146858
                                                         0.214447      -0.336829
                                                         0.120000       0.360608
                                                         0.140000      -0.340586

                          1       8    4dx2              3.103254      -0.073730
                                                         2.893835       0.215072
                                                         1.106151       0.648029
                                                         0.501100       0.200612
                                                         0.214447       0.032511
                                                         0.120000       0.039404
                                                         0.140000      -0.040198
                          1       8    4dxy              3.103254      -0.127705
                                                         2.893835       0.372516
                                                         1.106151       1.122419
                                                         0.501100       0.347470
                                                         0.214447       0.056311
                                                         0.120000       0.068250
                                                         0.140000      -0.069626
                          1       8    4dxz              3.103254      -0.127705
                                                         2.893835       0.372516
                                                         1.106151       1.122419
                                                         0.501100       0.347470
                                                         0.214447       0.056311
                                                         0.120000       0.068250
                                                         0.140000      -0.069626
                          1       8    4dy2              3.103254      -0.073730
                                                         2.893835       0.215072
                                                         1.106151       0.648029
                                                         0.501100       0.200612
                                                         0.214447       0.032511
                                                         0.120000       0.039404
                                                         0.140000      -0.040198
                          1       8    4dyz              3.103254      -0.127705
                                                         2.893835       0.372516
                                                         1.106151       1.122419
                                                         0.501100       0.347470
                                                         0.214447       0.056311
                                                         0.120000       0.068250
                                                         0.140000      -0.069626
                          1       8    4dz2              3.103254      -0.073730
                                                         2.893835       0.215072
                                                         1.106151       0.648029
                                                         0.501100       0.200612
                                                         0.214447       0.032511
                                                         0.120000       0.039404
                                                         0.140000      -0.040198

                          1       9    5dx2              3.103254       0.120212
                                                         2.893835      -0.247034
                                                         1.106151      -0.585668
                                                         0.501100      -0.200109
                                                         0.214447       0.050368
                                                         0.120000       0.106563
                                                         0.140000      -0.108711
                          1       9    5dxy              3.103254       0.208214
                                                         2.893835      -0.427875
                                                         1.106151      -1.014406
                                                         0.501100      -0.346599
                                                         0.214447       0.087239
                                                         0.120000       0.184573
                                                         0.140000      -0.188293
                          1       9    5dxz              3.103254       0.208214
                                                         2.893835      -0.427875
                                                         1.106151      -1.014406
                                                         0.501100      -0.346599
                                                         0.214447       0.087239
                                                         0.120000       0.184573
                                                         0.140000      -0.188293
                          1       9    5dy2              3.103254       0.120212
                                                         2.893835      -0.247034
                                                         1.106151      -0.585668
                                                         0.501100      -0.200109
                                                         0.214447       0.050368
                                                         0.120000       0.106563
                                                         0.140000      -0.108711
                          1       9    5dyz              3.103254       0.208214
                                                         2.893835      -0.427875
                                                         1.106151      -1.014406
                                                         0.501100      -0.346599
                                                         0.214447       0.087239
                                                         0.120000       0.184573
                                                         0.140000      -0.188293
                          1       9    5dz2              3.103254       0.120212
                                                         2.893835      -0.247034
                                                         1.106151      -0.585668
                                                         0.501100      -0.200109
                                                         0.214447       0.050368
                                                         0.120000       0.106563
                                                         0.140000      -0.108711

                          1      10    6dx2              3.103254      10.228451
                                                         2.893835     -10.154808
                                                         1.106151       0.833144
                                                         0.501100      -0.004804
                                                         0.214447      -0.129172
                                                         0.120000       0.182950
                                                         0.140000      -0.186637
                          1      10    6dxy              3.103254      17.716196
                                                         2.893835     -17.588644
                                                         1.106151       1.443047
                                                         0.501100      -0.008321
                                                         0.214447      -0.223732
                                                         0.120000       0.316879
                                                         0.140000      -0.323264
                          1      10    6dxz              3.103254      17.716196
                                                         2.893835     -17.588644
                                                         1.106151       1.443047
                                                         0.501100      -0.008321
                                                         0.214447      -0.223732
                                                         0.120000       0.316879
                                                         0.140000      -0.323264
                          1      10    6dy2              3.103254      10.228451
                                                         2.893835     -10.154808
                                                         1.106151       0.833144
                                                         0.501100      -0.004804
                                                         0.214447      -0.129172
                                                         0.120000       0.182950
                                                         0.140000      -0.186637
                          1      10    6dyz              3.103254      17.716196
                                                         2.893835     -17.588644
                                                         1.106151       1.443047
                                                         0.501100      -0.008321
                                                         0.214447      -0.223732
                                                         0.120000       0.316879
                                                         0.140000      -0.323264
                          1      10    6dz2              3.103254      10.228451
                                                         2.893835     -10.154808
                                                         1.106151       0.833144
                                                         0.501100      -0.004804
                                                         0.214447      -0.129172
                                                         0.120000       0.182950
                                                         0.140000      -0.186637

                          1      11    5fx3              3.103254      -2.200951
                                                         2.893835       2.432659
                                                         1.106151      -0.371072
                                                         0.501100      -0.177479
                                                         0.214447      -0.017113
                                                         0.120000      -0.003108
                                                         0.140000       0.003424
                          1      11    5fx2y             3.103254      -4.921477
                                                         2.893835       5.439590
                                                         1.106151      -0.829742
                                                         0.501100      -0.396854
                                                         0.214447      -0.038265
                                                         0.120000      -0.006949
                                                         0.140000       0.007657
                          1      11    5fx2z             3.103254      -4.921477
                                                         2.893835       5.439590
                                                         1.106151      -0.829742
                                                         0.501100      -0.396854
                                                         0.214447      -0.038265
                                                         0.120000      -0.006949
                                                         0.140000       0.007657
                          1      11    5fxy2             3.103254      -4.921477
                                                         2.893835       5.439590
                                                         1.106151      -0.829742
                                                         0.501100      -0.396854
                                                         0.214447      -0.038265
                                                         0.120000      -0.006949
                                                         0.140000       0.007657
                          1      11    5fxyz             3.103254      -8.524248
                                                         2.893835       9.421647
                                                         1.106151      -1.437155
                                                         0.501100      -0.687372
                                                         0.214447      -0.066277
                                                         0.120000      -0.012036
                                                         0.140000       0.013263
                          1      11    5fxz2             3.103254      -4.921477
                                                         2.893835       5.439590
                                                         1.106151      -0.829742
                                                         0.501100      -0.396854
                                                         0.214447      -0.038265
                                                         0.120000      -0.006949
                                                         0.140000       0.007657
                          1      11    5fy3              3.103254      -2.200951
                                                         2.893835       2.432659
                                                         1.106151      -0.371072
                                                         0.501100      -0.177479
                                                         0.214447      -0.017113
                                                         0.120000      -0.003108
                                                         0.140000       0.003424
                          1      11    5fy2z             3.103254      -4.921477
                                                         2.893835       5.439590
                                                         1.106151      -0.829742
                                                         0.501100      -0.396854
                                                         0.214447      -0.038265
                                                         0.120000      -0.006949
                                                         0.140000       0.007657
                          1      11    5fyz2             3.103254      -4.921477
                                                         2.893835       5.439590
                                                         1.106151      -0.829742
                                                         0.501100      -0.396854
                                                         0.214447      -0.038265
                                                         0.120000      -0.006949
                                                         0.140000       0.007657
                          1      11    5fz3              3.103254      -2.200951
                                                         2.893835       2.432659
                                                         1.106151      -0.371072
                                                         0.501100      -0.177479
                                                         0.214447      -0.017113
                                                         0.120000      -0.003108
                                                         0.140000       0.003424

     RI Auxiliary Basis Set                                 def2-SVP-RIFIT-mod-3

       Number of orbital shell sets:                                          16
       Number of orbital shells:                                              16
       Number of primitive Cartesian functions:                               16
       Number of Cartesian basis functions:                                   88
       Number of spherical basis functions:                                   66
       Norm type:                                                              2

       Normalised Cartesian orbitals:

                        Set   Shell   Orbital            Exponent    Coefficient

                          1       1    1s                0.238675       0.243369

                          2       1    1fx3              0.253216       0.066959
                          2       1    1fx2y             0.253216       0.149725
                          2       1    1fx2z             0.253216       0.149725
                          2       1    1fxy2             0.253216       0.149725
                          2       1    1fxyz             0.253216       0.259331
                          2       1    1fxz2             0.253216       0.149725
                          2       1    1fy3              0.253216       0.066959
                          2       1    1fy2z             0.253216       0.149725
                          2       1    1fyz2             0.253216       0.149725
                          2       1    1fz3              0.253216       0.066959

                          3       1    1px               0.269126       0.276302
                          3       1    1py               0.269126       0.276302
                          3       1    1pz               0.269126       0.276302

                          4       1    1dx2              0.304026       0.204882
                          4       1    1dxy              0.304026       0.354866
                          4       1    1dxz              0.304026       0.354866
                          4       1    1dy2              0.304026       0.204882
                          4       1    1dyz              0.304026       0.354866
                          4       1    1dz2              0.304026       0.204882

                          5       1    1gx4              0.365033       0.069638
                          5       1    1gx3y             0.365033       0.184246
                          5       1    1gx3z             0.365033       0.184246
                          5       1    1gx2y2            0.365033       0.237860
                          5       1    1gx2yz            0.365033       0.411986
                          5       1    1gx2z2            0.365033       0.237860
                          5       1    1gxy3             0.365033       0.184246
                          5       1    1gxy2z            0.365033       0.411986
                          5       1    1gxyz2            0.365033       0.411986
                          5       1    1gxz3             0.365033       0.184246
                          5       1    1gy4              0.365033       0.069638
                          5       1    1gy3z             0.365033       0.184246
                          5       1    1gy2z2            0.365033       0.237860
                          5       1    1gyz3             0.365033       0.184246
                          5       1    1gz4              0.365033       0.069638

                          6       1    1s                0.424638       0.374908

                          7       1    1s                0.648984       0.515330

                          8       1    1dx2              0.719090       0.924230
                          8       1    1dxy              0.719090       1.600814
                          8       1    1dxz              0.719090       1.600814
                          8       1    1dy2              0.719090       0.924230
                          8       1    1dyz              0.719090       1.600814
                          8       1    1dz2              0.719090       0.924230

                          9       1    1gx4              0.914481       0.870294
                          9       1    1gx3y             0.914481       2.302581
                          9       1    1gx3z             0.914481       2.302581
                          9       1    1gx2y2            0.914481       2.972619
                          9       1    1gx2yz            0.914481       5.148727
                          9       1    1gx2z2            0.914481       2.972619
                          9       1    1gxy3             0.914481       2.302581
                          9       1    1gxy2z            0.914481       5.148727
                          9       1    1gxyz2            0.914481       5.148727
                          9       1    1gxz3             0.914481       2.302581
                          9       1    1gy4              0.914481       0.870294
                          9       1    1gy3z             0.914481       2.302581
                          9       1    1gy2z2            0.914481       2.972619
                          9       1    1gyz3             0.914481       2.302581
                          9       1    1gz4              0.914481       0.870294

                         10       1    1px               0.967490       1.367723
                         10       1    1py               0.967490       1.367723
                         10       1    1pz               0.967490       1.367723

                         11       1    1dx2              1.179750       2.198072
                         11       1    1dxy              1.179750       3.807173
                         11       1    1dxz              1.179750       3.807173
                         11       1    1dy2              1.179750       2.198072
                         11       1    1dyz              1.179750       3.807173
                         11       1    1dz2              1.179750       2.198072

                         12       1    1fx3              1.281070       2.570357
                         12       1    1fx2y             1.281070       5.747492
                         12       1    1fx2z             1.281070       5.747492
                         12       1    1fxy2             1.281070       5.747492
                         12       1    1fxyz             1.281070       9.954948
                         12       1    1fxz2             1.281070       5.747492
                         12       1    1fy3              1.281070       2.570357
                         12       1    1fy2z             1.281070       5.747492
                         12       1    1fyz2             1.281070       5.747492
                         12       1    1fz3              1.281070       2.570357

                         13       1    1s                1.466370       0.949714

                         14       1    1px               1.939290       3.262072
                         14       1    1py               1.939290       3.262072
                         14       1    1pz               1.939290       3.262072

                         15       1    1s                2.101910       1.244144

                         16       1    1dx2              2.484170       8.090526
                         16       1    1dxy              2.484170      14.013202
                         16       1    1dxz              2.484170      14.013202
                         16       1    1dy2              2.484170       8.090526
                         16       1    1dyz              2.484170      14.013202
                         16       1    1dz2              2.484170       8.090526

       Atomic covalent radius [Angstrom]:                                  1.300

       Atomic van der Waals radius [Angstrom]:                             1.670

     GTH Potential information for                                  GTH-PADE-q14

       Description:                       Goedecker-Teter-Hutter pseudopotential
                                           Goedecker et al., PRB 54, 1703 (1996)
                                          Hartwigsen et al., PRB 58, 3641 (1998)
                                                      Krack, TCA 114, 145 (2005)

       Gaussian exponent of the core charge distribution:               1.714678
       Electronic configuration (s p d ...):                           4   6   4

       Parameters of the local part of the GTH pseudopotential:

                          rloc        C1          C2          C3          C4
                        0.540000    4.800251    0.901544

       Parameters of the non-local part of the GTH pseudopotential:

                   l      r(l)      h(i,j,l)

                   0    0.418570    2.692204    2.332557    0.297239
                                    2.332557   -6.022638   -0.767467
                                    0.297239   -0.767467    1.218316
                   1    0.449555   -0.702084    1.036024
                                    1.036024   -2.451680
                   2    0.399602    1.177436    2.448917
                                    2.448917   -5.553621

  2. Atomic kind: Se                                    Number of atoms:     200

     Orbital Basis Set                                        TZVP-MOLOPT-SR-GTH

       Number of orbital shell sets:                                           1
[...]
 flops inhomo. stacks                618121706400     100.0%      0.0%      0.0%
 flops total                         2.738852E+12      22.6%     77.4%      0.0%
 flops max/rank                      6.848858E+09      22.6%     77.4%      0.0%
 matmuls inhomo. stacks                    101456     100.0%      0.0%      0.0%
 matmuls total                           36261696       0.3%     99.7%      0.0%
 number of processed stacks               4436498       2.3%     97.7%      0.0%
 average stack size                                     1.0       8.3       0.0
 marketing flops                   818.891981E+09
 -------------------------------------------------------------------------------
 # multiplications                              8
 max memory usage/rank               1.163596E+09
 # max total images/rank                       17
 # max 3D layers                                1
 # MPI messages exchanged                 1101056
 MPI messages size (bytes):
  total size                       220.815540E+09
  min size                           0.000000E+00
  max size                         615.264000E+03
  average size                     200.548875E+03
 MPI breakdown and total messages size (bytes):
             size <=      128               78064                        0
       128 < size <=     8192                3052                 18796288
      8192 < size <=    32768              201523               4658153472
     32768 < size <=   131072              235249              11986936640
    131072 < size <=  4194304              583168             204151680000
   4194304 < size <= 16777216                   0                        0
  16777216 < size                               0                        0
 -------------------------------------------------------------------------------

 *** WARNING in dbcsr_mm.F:290 :: Using a non-square number of MPI ranks ***
 *** might lead to poor performance. Used ranks: 544 Suggested: 529 1089 ***

 -------------------------------------------------------------------------------
 -                                                                             -
 -                      DBCSR MESSAGE PASSING PERFORMANCE                      -
 -                                                                             -
 -------------------------------------------------------------------------------
 ROUTINE             CALLS      AVE VOLUME [Bytes]
 MP_Bcast              367                     12.
 MP_Allreduce          795                     25.
 MP_Alltoall         99159                1062310.
 MP_ISend             4262                  98062.
 MP_IRecv             4218                  98215.
 -------------------------------------------------------------------------------

 -------------------------------------------------------------------------------
 -                                                                             -
 -                                DBM STATISTICS                               -
 -                                                                             -
 -------------------------------------------------------------------------------
    M  x    N  x    K                                          COUNT     PERCENT
   ??  x   ??  x >999                                      851326892       0.16%
   ??  x >999  x   ??                                      828903416       0.16%
  ???  x   ??  x   ??                                    68649892600      12.88%
    ?  x   ??  x  ???                                    17052016840       3.20%
   ??  x   ??  x  ???                                    59925756698      11.24%
   ??  x    ?  x  ???                                    16744889937       3.14%
    ?  x  ???  x   ??                                    16380846714       3.07%
    ?  x  ???  x    ?                                    63601360298      11.93%
    ?  x    ?  x    ?                                   162289486577      30.44%
   ??  x >999  x    ?                                     3257518512       0.61%
   ??  x    ?  x >999                                     3156501356       0.59%
    ?  x   ??  x >999                                     3065222289       0.57%
   ??  x   ??  x   ??                                     7182098591       1.35%
    ?  x    ?  x >999                                    11383116927       2.14%
    ?  x >999  x   ??                                     2687328649       0.50%
   ??  x  ???  x    ?                                    19643513258       3.68%
    ?  x >999  x    ?                                    10547663050       1.98%
   ??  x  ???  x   ??                                     5058963672       0.95%
    ?  x    ?  x  ???                                    60849339779      11.41%
 -------------------------------------------------------------------------------

 -------------------------------------------------------------------------------
 -                                                                             -
 -                                GRID STATISTICS                              -
 -                                                                             -
 -------------------------------------------------------------------------------
 LP    KERNEL             BACKEND                              COUNT     PERCENT
 5     collocate general  REF                                1842000      23.17%
 5     integrate general  REF                                1842000      23.17%
 4     collocate general  REF                                1053000      13.25%
 4     integrate general  REF                                1053000      13.25%
 6     collocate general  REF                                 834500      10.50%
 6     integrate general  REF                                 834500      10.50%
 0     collocate general  REF                                 326400       4.11%
 0     integrate general  REF                                 163200       2.05%
 -------------------------------------------------------------------------------

 MEMORY| Estimated peak process memory [MiB]                                6991

 -------------------------------------------------------------------------------
 ----                             MULTIGRID INFO                            ----
 -------------------------------------------------------------------------------
 count for grid        1:       11511644          cutoff [a.u.]          250.00
 count for grid        2:        8548784          cutoff [a.u.]           83.33
 count for grid        3:        5272376          cutoff [a.u.]           27.78
 count for grid        4:          63104          cutoff [a.u.]            9.26
 total gridlevel count  :       25395908

 -------------------------------------------------------------------------------
 -                                                                             -
 -                         MESSAGE PASSING PERFORMANCE                         -
 -                                                                             -
 -------------------------------------------------------------------------------

 ROUTINE             CALLS      AVE VOLUME [Bytes]
 MP_Group             5945
 MP_Bcast            14885                 518214.
 MP_Allreduce        11649                  16096.
 MP_Sync              8992
 MP_Alltoall          3820               17352478.
 MP_SendRecv          5430                  15840.
 MP_ISendRecv         5430                  15840.
 MP_Wait             14904
 MP_comm_split        3471
 MP_ISend           647763                 315859.
 MP_IRecv           606545                 329298.
 MP_Recv               215                1766400.
 -------------------------------------------------------------------------------


 -------------------------------------------------------------------------------
 -                                                                             -
 -                           R E F E R E N C E S                               -
 -                                                                             -
 -------------------------------------------------------------------------------
 
 CP2K version 2023.1 (Development Version), the CP2K developers group (2023).
 CP2K is freely available from https://www.cp2k.org/ .

 Kuehne,Thomas D.; Iannuzzi,Marcella; Del Ben,Mauro;
 Rybkin,Vladimir V.; Seewald,Patrick; Stein,Frederick; Laino,Teodoro;
 Khaliullin,Rustam Z.; Schuett,Ole; Schiffmann,Florian; Golze,Dorothea;
 Wilhelm,Jan; Chulkov,Sergey; Bani-Hashemian,Mohammad Hossein;
 Weber,Valery; Borstnik,Urban; Taillefumier,Mathieu;
 Jakobovits,Alice Shoshana; Lazzaro,Alfio; Pabst,Hans; Mueller,Tiziano;
 Schade,Robert; Guidon,Manuel; Andermatt,Samuel; Holmberg,Nico;
 Schenter,Gregory K.; Hehn,Anna; Bussy,Augustin; Belleflamme,Fabian;
 Tabacchi,Gloria; Gloess,Andreas; Lass,Michael; Bethune,Iain;
 Mundy,Christopher J.; Plessl,Christian; Watkins,Matt;
 VandeVondele,Joost; Krack,Matthias; Hutter,Juerg. 
 The Journal of Chemical Physics, 152 (19), (2020). 
 CP2K: An electronic structure and molecular dynamics software package -
 Quickstep: Efficient and accurate electronic structure calculations.
 https://doi.org/10.1063/5.0007045

 Wilhelm, J; Golze, D; Talirz, L; Hutter, J; Pignedoli, CA. 
 JOURNAL OF PHYSICAL CHEMISTRY LETTERS, 9, 306-312 (2018). 
 Toward GW calculations on thousands of atoms.
 https://doi.org/10.1021/acs.jpclett.7b02740

 Wilhelm, J; Hutter, J. PHYSICAL REVIEW B, 95, 235123 (2017). 
 Periodic GW calculations in the Gaussian and plane-waves scheme.
 https://doi.org/10.1103/PhysRevB.95.235123

 Wilhelm, J; Del Ben, M; Hutter, J. 
 JOURNAL OF CHEMICAL THEORY AND COMPUTATION, 12, 3623-3635 (2016). 
 GW in the Gaussian and plane waves scheme with application to linear acenes.
 https://doi.org/10.1021/acs.jctc.6b00380

 Wilhelm, J; Seewald, P; Del Ben, M; Hutter, J. 
 JOURNAL OF CHEMICAL THEORY AND COMPUTATION, 12, 5851-5859 (2016). 
 Large-Scale Cubic-Scaling Random Phase Approximation Correlation.
 https://doi.org/10.1021/acs.jctc.6b00840

 Schuett, Ole; Messmer, Peter; Hutter, Juerg; VandeVondele, Joost. 
 Electronic Structure Calculations on Graphics Processing Units, John
 Wiley & Sons, Ltd, 173-190 (2016). 
 GPU-Accelerated Sparse Matrix-Matrix Multiplication for
 Linear Scaling Density Functional Theory.
 https://doi.org/10.1002/9781118670712.ch8

 Heinecke, A; Henry, G; Hutchinson, M; Pabst, H. 
 Proceedings of Intl. Supercomputing Conference, 981-991 (2016). 
 LIBXSMM: Accelerating Small Matrix Multiplications
 by Runtime Code Generation.
 https://doi.org/10.1109/SC.2016.83

 Del Ben, M; Schuett, O; Wentz, T; Messmer, P; Hutter, J;
 VandeVondele, J. 
 COMPUTER PHYSICS COMMUNICATIONS, 187, 120-129 (2015). 
 Enabling simulation at the fifth rung of DFT: Large scale RPA
 calculations with excellent time to solution.
 https://doi.org/10.1016/j.cpc.2014.10.021

 Borstnik, U; VandeVondele, J; Weber, V; Hutter, J. 
 PARALLEL COMPUTING, 40 (5-6), 47-58 (2014). 
 Sparse matrix multiplication: The distributed block-compressed sparse
 row library.
 https://doi.org/10.1016/j.parco.2014.03.012

 Hutter, J; Iannuzzi, M; Schiffmann, F; VandeVondele, J. 
 WIREs Comput Mol Sci., 4 (1), 15-25 (2014). 
 CP2K: atomistic simulations of condensed matter systems.
 https://doi.org/10.1002/wcms.1159

 Del Ben, M; Hutter, J; VandeVondele, J. 
 JOURNAL OF CHEMICAL THEORY AND COMPUTATION, 9 (6), 2654-2671 (2013). 
 Electron Correlation in the Condensed Phase from a Resolution of
 Identity Approach Based on the Gaussian and Plane Waves Scheme.
 https://doi.org/10.1021/ct4002202

 Del Ben, M; Hutter, J; VandeVondele, J. 
 JOURNAL OF CHEMICAL THEORY AND COMPUTATION, 8 (11), 4177-4188 (2012). 
 Second-Order Moller-Plesset Perturbation Theory in the Condensed Phase:
 An Efficient and Massively Parallel Gaussian and Plane Waves Approach.
 https://doi.org/10.1021/ct300531w

 VandeVondele, J; Hutter, J. 
 JOURNAL OF CHEMICAL PHYSICS, 127 (11), 114105 (2007). 
 Gaussian basis sets for accurate calculations on molecular systems in
 gas and condensed phases.
 https://doi.org/10.1063/1.2770708

 Krack, M. 
 THEORETICAL CHEMISTRY ACCOUNTS, 114 (1-3), 145-152 (2005). 
 Pseudopotentials for H to Kr optimized for gradient-corrected
 exchange-correlation functionals.
 https://doi.org/10.1007/s00214-005-0655-y

 VandeVondele, J; Krack, M; Mohamed, F; Parrinello, M; Chassaing, T;
 Hutter, J. COMPUTER PHYSICS COMMUNICATIONS, 167 (2), 103-128 (2005). 
 QUICKSTEP: Fast and accurate density functional calculations using a
 mixed Gaussian and plane waves approach.
 https://doi.org/10.1016/j.cpc.2004.12.014

 Frigo, M; Johnson, SG. 
 PROCEEDINGS OF THE IEEE, 93 (2), 216-231 (2005). 
 The design and implementation of FFTW3.
 https://doi.org/10.1109/JPROC.2004.840301

 Hartwigsen, C; Goedecker, S; Hutter, J. 
 PHYSICAL REVIEW B, 58 (7), 3641-3662 (1998). 
 Relativistic separable dual-space Gaussian pseudopotentials from H to Rn.
 https://doi.org/10.1103/PhysRevB.58.3641

 Lippert, G; Hutter, J; Parrinello, M. 
 MOLECULAR PHYSICS, 92 (3), 477-487 (1997). 
 A hybrid Gaussian and plane wave density functional scheme.
 https://doi.org/10.1080/002689797170220

 Goedecker, S; Teter, M; Hutter, J. 
 PHYSICAL REVIEW B, 54 (3), 1703-1710 (1996). 
 Separable dual-space Gaussian pseudopotentials.
 https://doi.org/10.1103/PhysRevB.54.1703


 -------------------------------------------------------------------------------
 -                                                                             -
 -                                T I M I N G                                  -
 -                                                                             -
 -------------------------------------------------------------------------------
 SUBROUTINE                       CALLS  ASD         SELF TIME        TOTAL TIME
                                MAXIMUM       AVERAGE  MAXIMUM  AVERAGE  MAXIMUM
 CP2K                                 1  1.0    0.268    0.296 9815.273 9815.334
 qs_energies                          1  2.0    0.012    0.019 9813.898 9813.982
 mp2_main                             1  3.0    0.002    0.003 9793.450 9793.534
 mp2_gpw_main                         1  4.0    0.052    0.059 9790.219 9790.302
 rpa_ri_compute_en                    1  5.0    0.005    0.020 8815.072 8815.160
 rpa_num_int                          1  6.0    0.002    0.003 8364.644 8364.726
 rpa_num_int_RPA_matrix_operati      10  7.0    0.000    0.001 3937.427 3937.470
 invert_eps_compute_W_and_Erpa_      10  8.0    0.004    0.005 3937.380 3937.420
 dbt_total                         1907  9.8    0.012    0.021 3822.307 3822.331
 dbt_contract                       765 11.0    0.039    0.043 3367.518 3368.067
 dbt_tas_total                     1206 13.4  104.392  126.945 3307.485 3307.507
 dbt_tas_multiply                  1065 12.8    0.002    0.003 3290.734 3290.756
 compute_QP_energies                  1  7.0    0.001    0.001 3264.115 3264.136
 compute_self_energy_cubic_gw_k       1  8.0    0.161    0.174 3263.848 3264.046
 cp_cfm_heevd                       441 10.2 3119.686 3124.063 3119.686 3124.063
 cp_cfm_power                       312  9.7    0.354    0.608 3092.855 3093.131
 compute_Q_kp_RPA                   260  9.0    0.405    0.482 3069.385 3070.447
 dbt_tas_dbm                       1065 14.8    0.004    0.005 2562.274 2562.290
 dbm_multiply                      1065 16.8 2085.346 2193.705 2085.346 2193.705
 parallel_gemm_cfm                 4194 10.2    0.013    0.016 1716.409 1730.507
 parallel_gemm_cfm_cosma           4194 11.2 1716.396 1730.495 1716.396 1730.495
 contract_to_self_energy            198  9.0    0.005    0.006 1401.616 1404.988
 tensor_operation_3c_W               99  9.0    0.001    0.001 1322.862 1326.397
 compute_mat_P_omega                  1  7.0    0.001    0.002 1158.766 1158.820
 compute_mat_P_omega_contract        10  8.0    3.400    3.691 1144.598 1144.654
 dbt_tas_mm_3N                      198 16.5    0.001    0.001 1013.378 1084.332
 mp2_ri_gpw_compute_in                1  5.0    0.061    0.068  975.078  975.084
 get_2c_integrals                     1  6.0    0.002    0.002  934.004  934.010
 mp_sync                           8992 12.5  581.820  747.938  581.820  747.938
 compute_Wc_real_space_tau_GW       260  9.0    0.002    0.003  722.635  723.007
 dbt_tas_mm_2                       289 15.0    0.002    0.002  714.160  714.165
 inversion_of_M_and_mult_with_c       1  7.0    0.001    0.001  524.899  524.905
 trafo_to_mo_and_kpoints             21  9.0    0.222    0.234  504.238  504.242
 compute_Wc_real_space_tau_GW_3     260 10.0    0.001    0.002  461.099  471.921
 get_bandstruc_and_k_dependent_       1  6.0    0.002    0.002  450.413  450.440
 create_kp_and_calc_kp_orbitals       3  7.0    0.005    0.007  450.412  450.439
 cp_cfm_geeig                       129  8.0    0.005    0.006  438.958  442.138
 dbt_copy                           949 10.8    0.047    0.085  405.933  417.137
 dbt_reshape                        929 11.8   65.861   68.763  402.975  414.061
 mp_waitall_2                      5357 16.7  277.326  381.874  277.326  381.874
 compute_V_by_lattice_sum             1  7.0    0.000    0.000  370.338  370.341
 build_2c_coulomb_matrix_kp           2  8.0    0.000    0.000  265.732  369.306
 lattice_sum                          2  9.0    8.513   10.131  265.730  369.304
 compute_v_transl                 13312 10.0  256.537  358.874  257.087  359.536
 compute_mat_P_omega_calc_P_t        90  9.0    0.000    0.000  355.062  355.064
 dbt_communicate_buffer             929 12.8    0.232    0.258  317.781  327.657
 dbt_tas_mm_3T                      396 16.5    0.001    0.001  262.361  292.103
 compute_mat_P_omega_calc_M_occ      90  9.0    3.302    3.617  272.703  272.706
 dbm_redistribute                  1794 15.7  256.064  271.652  256.064  271.652
 copy_dbcsr_to_fm                  3838 10.5    0.070    0.079  135.829  269.938
 dbt_tas_mm_1N                      182 15.0    0.000    0.001  220.646  266.218
 compute_Wc_real_space_tau_GW_2     260 10.0    0.137    0.159  244.645  261.823
 mp_alltoall_i22                  15277 12.7  118.182  257.082  118.182  257.082
 dbcsr_desymmetrize_deep           3898 11.4    1.691    2.025  116.992  251.081
 cp_cfm_cholesky_invert             260 11.0  224.237  224.865  224.237  224.865
 compute_mat_P_omega_calc_M_vir      90  9.0    0.000    0.000  213.713  213.717
 convert_to_new_pgrid              3195 14.8    7.881   15.010  199.242  206.055
 mp_isend_im2                    128474 13.7  113.623  184.868  113.623  184.868
 compute_mat_P_omega_copy_M_vir      90  9.0    0.000    0.001  146.144  147.878
 mp_sum_l                          6500 14.1  106.100  134.724  106.100  134.724
 cp_cfm_cholesky_decompose          389  9.7  122.474  122.523  122.474  122.523
 dbt_tas_communicate_buffer        1856 17.3    0.309    0.369  104.338  118.299
 cholesky_decomp_Q                  260  9.0    0.723    0.823  111.685  112.127
 cp_cfm_triangular_multiply         387  9.0  103.363  107.524  103.363  107.524
 dbt_tas_replicate                  928 15.0   21.544   27.672   95.647  104.759
 -------------------------------------------------------------------------------

 The number of warnings for this run is : 2
 
 -------------------------------------------------------------------------------
  **** **** ******  **  PROGRAM ENDED AT                 2023-03-03 20:16:48.691
 ***** ** ***  *** **   PROGRAM RAN ON                          f0965.nhr.fau.de
 **    ****   ******    PROGRAM RAN BY                                  b165da10
 ***** **    ** ** **   PROGRAM PROCESS ID                                 46664
  **** **  *******  **  PROGRAM STOPPED IN /home/atuin/b165da/b165da10/15_WSe2/1
                                           0x10/2_reg_RI_1e-2
