 DBCSR| CPU Multiplication driver                                           XSMM (U)
 DBCSR| Multrec recursion limit                                              512 (U)
 DBCSR| Multiplication stack size                                           1000 (D)
 DBCSR| Maximum elements for images                                    UNLIMITED (U)
 DBCSR| Multiplicative factor virtual images                                   1 (U)
 DBCSR| Use multiplication densification                                       T (D)
 DBCSR| Multiplication size stacks                                             3 (U)
 DBCSR| Use memory pool for CPU allocation                                     F (U)
 DBCSR| Number of 3D layers                                               SINGLE (U)
 DBCSR| Use MPI memory allocation                                              F (U)
 DBCSR| Use RMA algorithm                                                      F (U)
 DBCSR| Use Communication thread                                               T (U)
 DBCSR| Communication thread load                                             87 (D)
 DBCSR| MPI: My process id                                                     0
 DBCSR| MPI: Number of processes                                            1280
 DBCSR| OMP: Current number of threads                                         1
 DBCSR| OMP: Max number of threads                                             1
 DBCSR| Split modifier for TAS multiplication algorithm                  1.0E+00 (U)


  **** **** ******  **  PROGRAM STARTED AT               2023-03-05 17:55:20.509
 ***** ** ***  *** **   PROGRAM STARTED ON                      f0401.nhr.fau.de
 **    ****   ******    PROGRAM STARTED BY                              b165da10
 ***** **    ** ** **   PROGRAM PROCESS ID                                226074
  **** **  *******  **  PROGRAM STARTED IN /home/atuin/b165da/b165da10/17_MoS2_f
                                           ritz/11x11/1_reg_RI_1e-2

 CP2K| version string:                 CP2K version 2023.1 (Development Version)
 CP2K| source code revision number:                                  git:383ec4c
 CP2K| cp2kflags: omp libint fftw3 libxc parallel mpi_f08 scalapack cosma xsmm p
 CP2K|            lumed2 spglib mkl libvdwxc
 CP2K| is freely available from                            https://www.cp2k.org/
 CP2K| Program compiled at                           Fri Feb 3 21:19:19 CET 2023
 CP2K| Program compiled on                                     fritz3.nhr.fau.de
 CP2K| Program compiled for                                                local
 CP2K| Data directory path    /home/atuin/b165da/b165da10/01_CP2K_compilations/0
 CP2K| Input file name                                               GW_WSe2.inp
 
 GLOBAL| Force Environment number                                              1
 GLOBAL| Basis set file name                                        BASIS_MOLOPT
 GLOBAL| Potential file name                                      GTH_POTENTIALS
 GLOBAL| MM Potential file name                                     MM_POTENTIAL
 GLOBAL| Coordinate file name                                      __STD_INPUT__
 GLOBAL| Method name                                                        CP2K
 GLOBAL| Project name                                                       MoS2
 GLOBAL| Run type                                                         ENERGY
 GLOBAL| FFT library                                                       FFTW3
 GLOBAL| Diagonalization library                                       ScaLAPACK
 GLOBAL| DGEMM library                                                      BLAS
 GLOBAL| Orthonormality check for eigenvectors                          DISABLED
 GLOBAL| Matrix multiplication library                                     COSMA
 GLOBAL| All-to-all communication in single precision                          F
 GLOBAL| FFTs using library dependent lengths                                  F
 GLOBAL| Grid backend                                                       AUTO
 GLOBAL| Global print level                                               MEDIUM
 GLOBAL| MPI I/O enabled                                                       T
 GLOBAL| Total number of message passing processes                          1280
 GLOBAL| Number of threads for this process                                    1
 GLOBAL| This output is from process                                           0
 GLOBAL| Stack size for threads created by OpenMP (OMP_STACKSIZE)           500m
 GLOBAL| CPU model name            Intel(R) Xeon(R) Platinum 8360Y CPU @ 2.40GHz
 GLOBAL| CPUID                                                              1003

 MEMORY| system memory details [Kb]
 MEMORY|                        rank 0           min           max       average
 MEMORY| MemTotal            263795724     263781464     263797860     263795786
 MEMORY| MemFree             254902008     244788220     255176700     251249908
 MEMORY| Buffers                   280           124          2508           983
 MEMORY| Cached                2782768       2655804       3200380       2838216
 MEMORY| Slab                   582100        582100       9871740       4070745
 MEMORY| SReclaimable            93096         91048        156500        121699
 MEMORY| MemLikelyFree       257778152     247848212     258058992     254210808


 *** Fundamental physical constants (SI units) ***

 *** Literature: B. J. Mohr and B. N. Taylor,
 ***             CODATA recommended values of the fundamental physical
 ***             constants: 2006, Web Version 5.1
 ***             http://physics.nist.gov/constants

 Speed of light in vacuum [m/s]                             2.99792458000000E+08
 Magnetic constant or permeability of vacuum [N/A**2]       1.25663706143592E-06
 Electric constant or permittivity of vacuum [F/m]          8.85418781762039E-12
 Planck constant (h) [J*s]                                  6.62606896000000E-34
 Planck constant (h-bar) [J*s]                              1.05457162825177E-34
 Elementary charge [C]                                      1.60217648700000E-19
 Electron mass [kg]                                         9.10938215000000E-31
 Electron g factor [ ]                                     -2.00231930436220E+00
 Proton mass [kg]                                           1.67262163700000E-27
 Fine-structure constant                                    7.29735253760000E-03
 Rydberg constant [1/m]                                     1.09737315685270E+07
 Avogadro constant [1/mol]                                  6.02214179000000E+23
 Boltzmann constant [J/K]                                   1.38065040000000E-23
 Atomic mass unit [kg]                                      1.66053878200000E-27
 Bohr radius [m]                                            5.29177208590000E-11

 *** Conversion factors ***

 [u] -> [a.u.]                                              1.82288848426455E+03
 [Angstrom] -> [Bohr] = [a.u.]                              1.88972613288564E+00
 [a.u.] = [Bohr] -> [Angstrom]                              5.29177208590000E-01
 [a.u.] -> [s]                                              2.41888432650478E-17
 [a.u.] -> [fs]                                             2.41888432650478E-02
 [a.u.] -> [J]                                              4.35974393937059E-18
 [a.u.] -> [N]                                              8.23872205491840E-08
 [a.u.] -> [K]                                              3.15774647902944E+05
 [a.u.] -> [kJ/mol]                                         2.62549961709828E+03
 [a.u.] -> [kcal/mol]                                       6.27509468713739E+02
 [a.u.] -> [Pa]                                             2.94210107994716E+13
 [a.u.] -> [bar]                                            2.94210107994716E+08
 [a.u.] -> [atm]                                            2.90362800883016E+08
 [a.u.] -> [eV]                                             2.72113838565563E+01
 [a.u.] -> [Hz]                                             6.57968392072181E+15
 [a.u.] -> [1/cm] (wave numbers)                            2.19474631370540E+05
 [a.u./Bohr**2] -> [1/cm]                                   5.14048714338585E+03
 
 natom =           3
 SIZE(atom_info%r, 2) =           0
 natom =           3
 SIZE(atom_info%r, 2) =           0
 natom =           3
 SIZE(atom_info%r, 2) =           0
 natom =           3
 SIZE(atom_info%r, 2) =           0
 natom =           3
 SIZE(atom_info%r, 2) =           0
 natom =           3
 SIZE(atom_info%r, 2) =           0
 natom =           3
 SIZE(atom_info%r, 2) =           0
 natom =           3
 SIZE(atom_info%r, 2) =           0
 natom =           3
 SIZE(atom_info%r, 2) =           0
 natom =           3
 SIZE(atom_info%r, 2) =           0
 natom =           3
 SIZE(atom_info%r, 2) =           0
 natom =           3
 SIZE(atom_info%r, 2) =           0
 natom =           3
 SIZE(atom_info%r, 2) =           0
 natom =           3
 SIZE(atom_info%r, 2) =           0
 natom =           3
 SIZE(atom_info%r, 2) =           0
 natom =           3
 SIZE(atom_info%r, 2) =           0
 natom =           3
 SIZE(atom_info%r, 2) =           0
 natom =           3
 SIZE(atom_info%r, 2) =           0
 natom =           3
 SIZE(atom_info%r, 2) =           0
 natom =           3
 SIZE(atom_info%r, 2) =           0
 natom =           3
 SIZE(atom_info%r, 2) =           0
 natom =           3
 SIZE(atom_info%r, 2) =           0
 natom =           3
 SIZE(atom_info%r, 2) =           0
 natom =           3
 SIZE(atom_info%r, 2) =           0
 natom =           3
 SIZE(atom_info%r, 2) =           0
 natom =           3
 SIZE(atom_info%r, 2) =           0
 natom =           3
 SIZE(atom_info%r, 2) =           0
 natom =           3
 SIZE(atom_info%r, 2) =           0
 natom =           3
 SIZE(atom_info%r, 2) =           0
 natom =           3
 SIZE(atom_info%r, 2) =           0
 natom =           3
 SIZE(atom_info%r, 2) =           0
 natom =           3
 SIZE(atom_info%r, 2) =           0
 natom =           3
 SIZE(atom_info%r, 2) =           0
 natom =           3
 SIZE(atom_info%r, 2) =           0
 natom =           3
 SIZE(atom_info%r, 2) =           0
 natom =           3
 SIZE(atom_info%r, 2) =           0
 natom =           3
 SIZE(atom_info%r, 2) =           0
 natom =           3
 SIZE(atom_info%r, 2) =           0
 natom =           3
 SIZE(atom_info%r, 2) =           0
 natom =           3
 SIZE(atom_info%r, 2) =           0
 natom =           3
 SIZE(atom_info%r, 2) =           0
 natom =           3
 SIZE(atom_info%r, 2) =           0
 natom =           3
 SIZE(atom_info%r, 2) =           0
 natom =           3
 SIZE(atom_info%r, 2) =           0
 natom =           3
 SIZE(atom_info%r, 2) =           0
 natom =           3
 SIZE(atom_info%r, 2) =           0
 natom =           3
 SIZE(atom_info%r, 2) =           0
 natom =           3
 SIZE(atom_info%r, 2) =           0
 natom =           3
 SIZE(atom_info%r, 2) =           0
 natom =           3
 SIZE(atom_info%r, 2) =           0
 natom =           3
 SIZE(atom_info%r, 2) =           0
 natom =           3
 SIZE(atom_info%r, 2) =           0
 natom =           3
 SIZE(atom_info%r, 2) =           0
 natom =           3
 SIZE(atom_info%r, 2) =           0
 natom =           3
 SIZE(atom_info%r, 2) =           0
 natom =           3
 SIZE(atom_info%r, 2) =           0
 natom =           3
 SIZE(atom_info%r, 2) =           0
 natom =           3
 SIZE(atom_info%r, 2) =           0
 natom =           3
 SIZE(atom_info%r, 2) =           0
 natom =           3
 SIZE(atom_info%r, 2) =           0
 natom =           3
 SIZE(atom_info%r, 2) =           0
 natom =           3
 SIZE(atom_info%r, 2) =           0
 natom =           3
 SIZE(atom_info%r, 2) =           0
 natom =           3
 SIZE(atom_info%r, 2) =           0
 natom =           3
 SIZE(atom_info%r, 2) =           0
 natom =           3
 SIZE(atom_info%r, 2) =           0
 natom =           3
 SIZE(atom_info%r, 2) =           0
 natom =           3
 SIZE(atom_info%r, 2) =           0
 natom =           3
 SIZE(atom_info%r, 2) =           0
 natom =           3
 SIZE(atom_info%r, 2) =           0
 natom =           3
 SIZE(atom_info%r, 2) =           0
 natom =           3
 SIZE(atom_info%r, 2) =           0
 natom =           3
 SIZE(atom_info%r, 2) =           0
 natom =           3
 SIZE(atom_info%r, 2) =           0
 natom =           3
 SIZE(atom_info%r, 2) =           0
 natom =           3
 SIZE(atom_info%r, 2) =           0
 natom =           3
 SIZE(atom_info%r, 2) =           0
 natom =           3
 SIZE(atom_info%r, 2) =           0
 natom =           3
 SIZE(atom_info%r, 2) =           0
 natom =           3
 SIZE(atom_info%r, 2) =           0
 natom =           3
 SIZE(atom_info%r, 2) =           0
 natom =           3
 SIZE(atom_info%r, 2) =           0
 natom =           3
 SIZE(atom_info%r, 2) =           0
 natom =           3
 SIZE(atom_info%r, 2) =           0
 natom =           3
 SIZE(atom_info%r, 2) =           0
 natom =           3
 SIZE(atom_info%r, 2) =           0
 natom =           3
 SIZE(atom_info%r, 2) =           0
 natom =           3
 SIZE(atom_info%r, 2) =           0
 natom =           3
 SIZE(atom_info%r, 2) =           0
 natom =           3
 SIZE(atom_info%r, 2) =           0
 natom =           3
 SIZE(atom_info%r, 2) =           0
 natom =           3
 SIZE(atom_info%r, 2) =           0
 natom =           3
 SIZE(atom_info%r, 2) =           0
 natom =           3
 SIZE(atom_info%r, 2) =           0
 natom =           3
 SIZE(atom_info%r, 2) =           0
 natom =           3
 SIZE(atom_info%r, 2) =           0
 natom =           3
 SIZE(atom_info%r, 2) =           0
 natom =           3
 SIZE(atom_info%r, 2) =           0
 natom =           3
 SIZE(atom_info%r, 2) =           0
 natom =           3
 SIZE(atom_info%r, 2) =           0
 natom =           3
 SIZE(atom_info%r, 2) =           0
 natom =           3
 SIZE(atom_info%r, 2) =           0
 natom =           3
 SIZE(atom_info%r, 2) =           0
 natom =           3
 SIZE(atom_info%r, 2) =           0
 natom =           3
 SIZE(atom_info%r, 2) =           0
 natom =           3
 SIZE(atom_info%r, 2) =           0
 natom =           3
 SIZE(atom_info%r, 2) =           0
 natom =           3
 SIZE(atom_info%r, 2) =           0
 natom =           3
 SIZE(atom_info%r, 2) =           0
 natom =           3
 SIZE(atom_info%r, 2) =           0
 natom =           3
 SIZE(atom_info%r, 2) =           0
 natom =           3
 SIZE(atom_info%r, 2) =           0
 natom =           3
 SIZE(atom_info%r, 2) =           0
 natom =           3
 SIZE(atom_info%r, 2) =           0
 natom =           3
 SIZE(atom_info%r, 2) =           0
 natom =           3
 SIZE(atom_info%r, 2) =           0
 natom =           3
 SIZE(atom_info%r, 2) =           0
 natom =           3
 SIZE(atom_info%r, 2) =           0
 natom =           3
 SIZE(atom_info%r, 2) =           0
 natom =           3
 SIZE(atom_info%r, 2) =           0
 natom =           3
 SIZE(atom_info%r, 2) =           0
 natom =           3
 SIZE(atom_info%r, 2) =           0
 natom =           3
 SIZE(atom_info%r, 2) =           0
 natom =           3
 SIZE(atom_info%r, 2) =           0
 natom =           3
 SIZE(atom_info%r, 2) =           0
 natom =           3
 SIZE(atom_info%r, 2) =           0
 natom =           3
 SIZE(atom_info%r, 2) =           0
 natom =           3
 SIZE(atom_info%r, 2) =           0
 natom =           3
 SIZE(atom_info%r, 2) =           0
 natom =           3
 SIZE(atom_info%r, 2) =           0
 natom =           3
 SIZE(atom_info%r, 2) =           0
 natom =           3
 SIZE(atom_info%r, 2) =           0
 natom =           3
 SIZE(atom_info%r, 2) =           0
 natom =           3
 SIZE(atom_info%r, 2) =           0
 natom =           3
 SIZE(atom_info%r, 2) =           0
 natom =           3
 SIZE(atom_info%r, 2) =           0
 natom =           3
 SIZE(atom_info%r, 2) =           0
 natom =           3
 SIZE(atom_info%r, 2) =           0
 natom =           3
 SIZE(atom_info%r, 2) =           0
 natom =           3
 SIZE(atom_info%r, 2) =           0
 natom =           3
 SIZE(atom_info%r, 2) =           0
 natom =           3
 SIZE(atom_info%r, 2) =           0
 natom =           3
 SIZE(atom_info%r, 2) =           0
 natom =           3
 SIZE(atom_info%r, 2) =           0
 natom =           3
 SIZE(atom_info%r, 2) =           0
 natom =           3
 SIZE(atom_info%r, 2) =           0
 natom =           3
 SIZE(atom_info%r, 2) =           0
 natom =           3
 SIZE(atom_info%r, 2) =           0
 natom =           3
 SIZE(atom_info%r, 2) =           0
 natom =           3
 SIZE(atom_info%r, 2) =           0
 natom =           3
 SIZE(atom_info%r, 2) =           0
 natom =           3
 SIZE(atom_info%r, 2) =           0
 natom =           3
 SIZE(atom_info%r, 2) =           0
 natom =           3
 SIZE(atom_info%r, 2) =           0
 natom =           3
 SIZE(atom_info%r, 2) =           0
 natom =           3
 SIZE(atom_info%r, 2) =           0
 natom =           3
 SIZE(atom_info%r, 2) =           0
 natom =           3
 SIZE(atom_info%r, 2) =           0
 natom =           3
 SIZE(atom_info%r, 2) =           0
 natom =           3
 SIZE(atom_info%r, 2) =           0
 natom =           3
 SIZE(atom_info%r, 2) =           0
 natom =           3
 SIZE(atom_info%r, 2) =           0
 natom =           3
 SIZE(atom_info%r, 2) =           0
 natom =           3
 SIZE(atom_info%r, 2) =           0
 natom =           3
 SIZE(atom_info%r, 2) =           0
 natom =           3
 SIZE(atom_info%r, 2) =           0
 natom =           3
 SIZE(atom_info%r, 2) =           0
 natom =           3
 SIZE(atom_info%r, 2) =           0
 natom =           3
 SIZE(atom_info%r, 2) =           0
 natom =           3
 SIZE(atom_info%r, 2) =           0
 natom =           3
 SIZE(atom_info%r, 2) =           0
 natom =           3
 SIZE(atom_info%r, 2) =           0
 natom =           3
 SIZE(atom_info%r, 2) =           0
 natom =           3
 SIZE(atom_info%r, 2) =           0
 natom =           3
 SIZE(atom_info%r, 2) =           0
 natom =           3
 SIZE(atom_info%r, 2) =           0
 natom =           3
 SIZE(atom_info%r, 2) =           0
 natom =           3
 SIZE(atom_info%r, 2) =           0
 natom =           3
 SIZE(atom_info%r, 2) =           0
 natom =           3
 SIZE(atom_info%r, 2) =           0
 natom =           3
 SIZE(atom_info%r, 2) =           0
 natom =           3
 SIZE(atom_info%r, 2) =           0
 natom =           3
 SIZE(atom_info%r, 2) =           0
 natom =           3
 SIZE(atom_info%r, 2) =           0
 natom =           3
 SIZE(atom_info%r, 2) =           0
 natom =           3
 SIZE(atom_info%r, 2) =           0
 natom =           3
 SIZE(atom_info%r, 2) =           0
 natom =           3
 SIZE(atom_info%r, 2) =           0
 natom =           3
 SIZE(atom_info%r, 2) =           0
 natom =           3
 SIZE(atom_info%r, 2) =           0
 natom =           3
 SIZE(atom_info%r, 2) =           0
 natom =           3
 SIZE(atom_info%r, 2) =           0
 natom =           3
 SIZE(atom_info%r, 2) =           0
 natom =           3
 SIZE(atom_info%r, 2) =           0
 natom =           3
 SIZE(atom_info%r, 2) =           0
 natom =           3
 SIZE(atom_info%r, 2) =           0
 natom =           3
 SIZE(atom_info%r, 2) =           0
 natom =           3
 SIZE(atom_info%r, 2) =           0
 natom =           3
 SIZE(atom_info%r, 2) =           0
 natom =           3
 SIZE(atom_info%r, 2) =           0
 natom =           3
 SIZE(atom_info%r, 2) =           0
 natom =           3
 SIZE(atom_info%r, 2) =           0
 natom =           3
 SIZE(atom_info%r, 2) =           0
 natom =           3
 SIZE(atom_info%r, 2) =           0
 natom =           3
 SIZE(atom_info%r, 2) =           0
 natom =           3
 SIZE(atom_info%r, 2) =           0
 natom =           3
 SIZE(atom_info%r, 2) =           0
 natom =           3
 SIZE(atom_info%r, 2) =           0
 natom =           3
 SIZE(atom_info%r, 2) =           0
 natom =           3
 SIZE(atom_info%r, 2) =           0
 natom =           3
 SIZE(atom_info%r, 2) =           0
 natom =           3
 SIZE(atom_info%r, 2) =           0
 natom =           3
 SIZE(atom_info%r, 2) =           0
 natom =           3
 SIZE(atom_info%r, 2) =           0
 natom =           3
 SIZE(atom_info%r, 2) =           0
 natom =           3
 SIZE(atom_info%r, 2) =           0
 natom =           3
 SIZE(atom_info%r, 2) =           0
 natom =           3
 SIZE(atom_info%r, 2) =           0
 natom =           3
 SIZE(atom_info%r, 2) =           0
 natom =           3
 SIZE(atom_info%r, 2) =           0
 natom =           3
 SIZE(atom_info%r, 2) =           0
 natom =           3
 SIZE(atom_info%r, 2) =           0
 natom =           3
 SIZE(atom_info%r, 2) =           0
 natom =           3
 SIZE(atom_info%r, 2) =           0
 natom =           3
 SIZE(atom_info%r, 2) =           0
 natom =           3
 SIZE(atom_info%r, 2) =           0
 natom =           3
 SIZE(atom_info%r, 2) =           0
 natom =           3
 SIZE(atom_info%r, 2) =           0
 natom =           3
 SIZE(atom_info%r, 2) =           0
 natom =           3
 SIZE(atom_info%r, 2) =           0
 natom =           3
 SIZE(atom_info%r, 2) =           0
 natom =           3
 SIZE(atom_info%r, 2) =           0
 natom =           3
 SIZE(atom_info%r, 2) =           0
 natom =           3
 SIZE(atom_info%r, 2) =           0
 natom =           3
 SIZE(atom_info%r, 2) =           0
 natom =           3
 SIZE(atom_info%r, 2) =           0
 natom =           3
 SIZE(atom_info%r, 2) =           0
 natom =           3
 SIZE(atom_info%r, 2) =           0
 natom =           3
 SIZE(atom_info%r, 2) =           0
 natom =           3
 SIZE(atom_info%r, 2) =           0
 natom =           3
 SIZE(atom_info%r, 2) =           0
 natom =           3
 SIZE(atom_info%r, 2) =           0
 natom =           3
 SIZE(atom_info%r, 2) =           0
 natom =           3
 SIZE(atom_info%r, 2) =           0
 natom =           3
 SIZE(atom_info%r, 2) =           0
 natom =           3
 SIZE(atom_info%r, 2) =           0
 natom =           3
 SIZE(atom_info%r, 2) =           0
 natom =           3
 SIZE(atom_info%r, 2) =           0
 natom =           3
 SIZE(atom_info%r, 2) =           0
 natom =           3
 SIZE(atom_info%r, 2) =           0
 natom =           3
 SIZE(atom_info%r, 2) =           0
 natom =           3
 SIZE(atom_info%r, 2) =           0
 natom =           3
 SIZE(atom_info%r, 2) =           0
 natom =           3
 SIZE(atom_info%r, 2) =           0
 natom =           3
 SIZE(atom_info%r, 2) =           0
 natom =           3
 SIZE(atom_info%r, 2) =           0
 natom =           3
 SIZE(atom_info%r, 2) =           0
 natom =           3
 SIZE(atom_info%r, 2) =           0
 natom =           3
 SIZE(atom_info%r, 2) =           0
 natom =           3
 SIZE(atom_info%r, 2) =           0
 natom =           3
 SIZE(atom_info%r, 2) =           0
 natom =           3
 SIZE(atom_info%r, 2) =           0
 natom =           3
 SIZE(atom_info%r, 2) =           0
 natom =           3
 SIZE(atom_info%r, 2) =           0
 natom =           3
 SIZE(atom_info%r, 2) =           0
 natom =           3
 SIZE(atom_info%r, 2) =           0
 natom =           3
 SIZE(atom_info%r, 2) =           0
 natom =           3
 SIZE(atom_info%r, 2) =           0
 natom =           3
 SIZE(atom_info%r, 2) =           0
 natom =           3
 SIZE(atom_info%r, 2) =           0
 natom =           3
 SIZE(atom_info%r, 2) =           0
 natom =           3
 SIZE(atom_info%r, 2) =           0
 natom =           3
 SIZE(atom_info%r, 2) =           0
 natom =           3
 SIZE(atom_info%r, 2) =           0
 natom =           3
 SIZE(atom_info%r, 2) =           0
 natom =           3
 SIZE(atom_info%r, 2) =           0
 natom =           3
 SIZE(atom_info%r, 2) =           0
 natom =           3
 SIZE(atom_info%r, 2) =           0
 natom =           3
 SIZE(atom_info%r, 2) =           0
 natom =           3
 SIZE(atom_info%r, 2) =           0
 natom =           3
 SIZE(atom_info%r, 2) =           0
 natom =           3
 SIZE(atom_info%r, 2) =           0
 natom =           3
 SIZE(atom_info%r, 2) =           0
 natom =           3
 SIZE(atom_info%r, 2) =           0
 natom =           3
 SIZE(atom_info%r, 2) =           0
 natom =           3
 SIZE(atom_info%r, 2) =           0
 natom =           3
 SIZE(atom_info%r, 2) =           0
 natom =           3
 SIZE(atom_info%r, 2) =           0
 natom =           3
 SIZE(atom_info%r, 2) =           0
 natom =           3
 SIZE(atom_info%r, 2) =           0
 natom =           3
 SIZE(atom_info%r, 2) =           0
 natom =           3
 SIZE(atom_info%r, 2) =           0
 natom =           3
 SIZE(atom_info%r, 2) =           0
 natom =           3
 SIZE(atom_info%r, 2) =           0
 natom =           3
 SIZE(atom_info%r, 2) =           0
 natom =           3
 SIZE(atom_info%r, 2) =           0
 natom =           3
 SIZE(atom_info%r, 2) =           0
 natom =           3
 SIZE(atom_info%r, 2) =           0
 natom =           3
 SIZE(atom_info%r, 2) =           0
 natom =           3
 SIZE(atom_info%r, 2) =           0
 natom =           3
 SIZE(atom_info%r, 2) =           0
 natom =           3
 SIZE(atom_info%r, 2) =           0
 natom =           3
 SIZE(atom_info%r, 2) =           0
 natom =           3
 SIZE(atom_info%r, 2) =           0
 natom =           3
 SIZE(atom_info%r, 2) =           0
 natom =           3
 SIZE(atom_info%r, 2) =           0
 natom =           3
 SIZE(atom_info%r, 2) =           0
 natom =           3
 SIZE(atom_info%r, 2) =           0
 natom =           3
 SIZE(atom_info%r, 2) =           0
 natom =           3
 SIZE(atom_info%r, 2) =           0
 natom =           3
 SIZE(atom_info%r, 2) =           0
 natom =           3
 SIZE(atom_info%r, 2) =           0
 natom =           3
 SIZE(atom_info%r, 2) =           0
 natom =           3
 SIZE(atom_info%r, 2) =           0
 natom =           3
 SIZE(atom_info%r, 2) =           0
 natom =           3
 SIZE(atom_info%r, 2) =           0
 natom =           3
 SIZE(atom_info%r, 2) =           0
 natom =           3
 SIZE(atom_info%r, 2) =           0
 natom =           3
 SIZE(atom_info%r, 2) =           0
 natom =           3
 SIZE(atom_info%r, 2) =           0
 natom =           3
 SIZE(atom_info%r, 2) =           0
 natom =           3
 SIZE(atom_info%r, 2) =           0
 natom =           3
 SIZE(atom_info%r, 2) =           0
 natom =           3
 SIZE(atom_info%r, 2) =           0
 natom =           3
 SIZE(atom_info%r, 2) =           0
 natom =           3
 SIZE(atom_info%r, 2) =           0
 natom =           3
 SIZE(atom_info%r, 2) =           0
 natom =           3
 SIZE(atom_info%r, 2) =           0
 natom =           3
 SIZE(atom_info%r, 2) =           0
 natom =           3
 SIZE(atom_info%r, 2) =           0
 natom =           3
 SIZE(atom_info%r, 2) =           0
 natom =           3
 SIZE(atom_info%r, 2) =           0
 natom =           3
 SIZE(atom_info%r, 2) =           0
 natom =           3
 SIZE(atom_info%r, 2) =           0
 natom =           3
 SIZE(atom_info%r, 2) =           0
 natom =           3
 SIZE(atom_info%r, 2) =           0
 natom =           3
 SIZE(atom_info%r, 2) =           0
 natom =           3
 SIZE(atom_info%r, 2) =           0
 natom =           3
 SIZE(atom_info%r, 2) =           0
 natom =           3
 SIZE(atom_info%r, 2) =           0
 natom =           3
 SIZE(atom_info%r, 2) =           0
 natom =           3
 SIZE(atom_info%r, 2) =           0
 natom =           3
 SIZE(atom_info%r, 2) =           0
 natom =           3
 SIZE(atom_info%r, 2) =           0
 natom =           3
 SIZE(atom_info%r, 2) =           0
 natom =           3
 SIZE(atom_info%r, 2) =           0
 natom =           3
 SIZE(atom_info%r, 2) =           0
 natom =           3
 SIZE(atom_info%r, 2) =           0
 natom =           3
 SIZE(atom_info%r, 2) =           0
 natom =           3
 SIZE(atom_info%r, 2) =           0
 natom =           3
 SIZE(atom_info%r, 2) =           0
 natom =           3
 SIZE(atom_info%r, 2) =           0
 natom =           3
 SIZE(atom_info%r, 2) =           0
 natom =           3
 SIZE(atom_info%r, 2) =           0
 natom =           3
 SIZE(atom_info%r, 2) =           0
 natom =           3
 SIZE(atom_info%r, 2) =           0
 natom =           3
 SIZE(atom_info%r, 2) =           0
 natom =           3
 SIZE(atom_info%r, 2) =           0
 natom =           3
 SIZE(atom_info%r, 2) =           0
 natom =           3
 SIZE(atom_info%r, 2) =           0
 natom =           3
 SIZE(atom_info%r, 2) =           0
 natom =           3
 SIZE(atom_info%r, 2) =           0
 natom =           3
 SIZE(atom_info%r, 2) =           0
 natom =           3
 SIZE(atom_info%r, 2) =           0
 natom =           3
 SIZE(atom_info%r, 2) =           0
 natom =           3
 SIZE(atom_info%r, 2) =           0
 natom =           3
 SIZE(atom_info%r, 2) =           0
 natom =           3
 SIZE(atom_info%r, 2) =           0
 natom =           3
 SIZE(atom_info%r, 2) =           0
 natom =           3
 SIZE(atom_info%r, 2) =           0
 natom =           3
 SIZE(atom_info%r, 2) =           0
 natom =           3
 SIZE(atom_info%r, 2) =           0
 natom =           3
 SIZE(atom_info%r, 2) =           0
 natom =           3
 SIZE(atom_info%r, 2) =           0
 natom =           3
 SIZE(atom_info%r, 2) =           0
 natom =           3
 SIZE(atom_info%r, 2) =           0
 natom =           3
 SIZE(atom_info%r, 2) =           0
 natom =           3
 SIZE(atom_info%r, 2) =           0
 natom =           3
 SIZE(atom_info%r, 2) =           0
 natom =           3
 SIZE(atom_info%r, 2) =           0
 natom =           3
 SIZE(atom_info%r, 2) =           0
 natom =           3
 SIZE(atom_info%r, 2) =           0
 natom =           3
 SIZE(atom_info%r, 2) =           0
 natom =           3
 SIZE(atom_info%r, 2) =           0
 natom =           3
 SIZE(atom_info%r, 2) =           0
 natom =           3
 SIZE(atom_info%r, 2) =           0
 natom =           3
 SIZE(atom_info%r, 2) =           0
 natom =           3
 SIZE(atom_info%r, 2) =           0
 natom =           3
 SIZE(atom_info%r, 2) =           0
 natom =           3
 SIZE(atom_info%r, 2) =           0
 natom =           3
 SIZE(atom_info%r, 2) =           0
 natom =           3
 SIZE(atom_info%r, 2) =           0
 natom =           3
 SIZE(atom_info%r, 2) =           0
 natom =           3
 SIZE(atom_info%r, 2) =           0

 CELL_TOP| Volume [angstrom^3]:                                     15596.543780
 CELL_TOP| Vector a [angstrom    34.650     0.000     0.000   |a| =    34.650000
 CELL_TOP| Vector b [angstrom   -17.325    30.008     0.000   |b| =    34.650000
 CELL_TOP| Vector c [angstrom     0.000     0.000    15.000   |c| =    15.000000
 CELL_TOP| Angle (b,c), alpha [degree]:                                90.000000
 CELL_TOP| Angle (a,c), beta  [degree]:                                90.000000
 CELL_TOP| Angle (a,b), gamma [degree]:                               120.000000
 CELL_TOP| Numerically orthorhombic:                                          NO
 CELL_TOP| Periodicity                                                        XY

 CELL_UC| Volume [angstrom^3]:                                        128.897056
 CELL_UC| Vector a [angstrom]     3.150     0.000     0.000   |a| =     3.150000
 CELL_UC| Vector b [angstrom]    -1.575     2.728     0.000   |b| =     3.150000
 CELL_UC| Vector c [angstrom]     0.000     0.000    15.000   |c| =    15.000000
 CELL_UC| Angle (b,c), alpha [degree]:                                 90.000000
 CELL_UC| Angle (a,c), beta  [degree]:                                 90.000000
 CELL_UC| Angle (a,b), gamma [degree]:                                120.000000
 CELL_UC| Numerically orthorhombic:                                           NO
 CELL_UC| Periodicity                                                         XY
 natom =           3
 SIZE(atom_info%r, 2) =           0
 natom =           3
 SIZE(atom_info%r, 2) =           0
 natom =           3
 SIZE(atom_info%r, 2) =           0
 natom =           3
 SIZE(atom_info%r, 2) =           0
 natom =           3
 SIZE(atom_info%r, 2) =           0
 natom =           3
 SIZE(atom_info%r, 2) =           0
 natom =           3
 SIZE(atom_info%r, 2) =           0
 natom =           3
 SIZE(atom_info%r, 2) =           0
 natom =           3
 SIZE(atom_info%r, 2) =           0
 natom =           3
 SIZE(atom_info%r, 2) =           0
 natom =           3
 SIZE(atom_info%r, 2) =           0
 natom =           3
 SIZE(atom_info%r, 2) =           0
 natom =           3
 SIZE(atom_info%r, 2) =           0
 natom =           3
 SIZE(atom_info%r, 2) =           0
 natom =           3
 SIZE(atom_info%r, 2) =           0
 natom =           3
 SIZE(atom_info%r, 2) =           0
 natom =           3
 SIZE(atom_info%r, 2) =           0
 natom =           3
 SIZE(atom_info%r, 2) =           0
 natom =           3
 SIZE(atom_info%r, 2) =           0
 natom =           3
 SIZE(atom_info%r, 2) =           0
 natom =           3
 SIZE(atom_info%r, 2) =           0
 natom =           3
 SIZE(atom_info%r, 2) =           0
 natom =           3
 SIZE(atom_info%r, 2) =           0
 natom =           3
 SIZE(atom_info%r, 2) =           0
 natom =           3
 SIZE(atom_info%r, 2) =           0
 natom =           3
 SIZE(atom_info%r, 2) =           0
 natom =           3
 SIZE(atom_info%r, 2) =           0
 natom =           3
 SIZE(atom_info%r, 2) =           0
 natom =           3
 SIZE(atom_info%r, 2) =           0
 natom =           3
 SIZE(atom_info%r, 2) =           0
 natom =           3
 SIZE(atom_info%r, 2) =           0
 natom =           3
 SIZE(atom_info%r, 2) =           0
 natom =           3
 SIZE(atom_info%r, 2) =           0
 natom =           3
 SIZE(atom_info%r, 2) =           0
 natom =           3
 SIZE(atom_info%r, 2) =           0
 natom =           3
 SIZE(atom_info%r, 2) =           0
 natom =           3
 SIZE(atom_info%r, 2) =           0
 natom =           3
 SIZE(atom_info%r, 2) =           0
 natom =           3
 SIZE(atom_info%r, 2) =           0
 natom =           3
 SIZE(atom_info%r, 2) =           0
 natom =           3
 SIZE(atom_info%r, 2) =           0
 natom =           3
 SIZE(atom_info%r, 2) =           0
 natom =           3
 SIZE(atom_info%r, 2) =           0
 natom =           3
 SIZE(atom_info%r, 2) =           0
 natom =           3
 SIZE(atom_info%r, 2) =           0
 natom =           3
 SIZE(atom_info%r, 2) =           0
 natom =           3
 SIZE(atom_info%r, 2) =           0
 natom =           3
 SIZE(atom_info%r, 2) =           0
 natom =           3
 SIZE(atom_info%r, 2) =           0
 natom =           3
 SIZE(atom_info%r, 2) =           0
 natom =           3
 SIZE(atom_info%r, 2) =           0
 natom =           3
 SIZE(atom_info%r, 2) =           0
 natom =           3
 SIZE(atom_info%r, 2) =           0
 natom =           3
 SIZE(atom_info%r, 2) =           0
 natom =           3
 SIZE(atom_info%r, 2) =           0
 natom =           3
 SIZE(atom_info%r, 2) =           0
 natom =           3
 SIZE(atom_info%r, 2) =           0
 natom =           3
 SIZE(atom_info%r, 2) =           0
 natom =           3
 SIZE(atom_info%r, 2) =           0
 natom =           3
 SIZE(atom_info%r, 2) =           0
 natom =           3
 SIZE(atom_info%r, 2) =           0
 natom =           3
 SIZE(atom_info%r, 2) =           0
 natom =           3
 SIZE(atom_info%r, 2) =           0
 natom =           3
 SIZE(atom_info%r, 2) =           0
 natom =           3
 SIZE(atom_info%r, 2) =           0
 natom =           3
 SIZE(atom_info%r, 2) =           0
 natom =           3
 SIZE(atom_info%r, 2) =           0
 natom =           3
 SIZE(atom_info%r, 2) =           0
 natom =           3
 SIZE(atom_info%r, 2) =           0
 natom =           3
 SIZE(atom_info%r, 2) =           0
 natom =           3
 SIZE(atom_info%r, 2) =           0
 natom =           3
 SIZE(atom_info%r, 2) =           0
 natom =           3
 SIZE(atom_info%r, 2) =           0
 natom =           3
 SIZE(atom_info%r, 2) =           0
 natom =           3
 SIZE(atom_info%r, 2) =           0
 natom =           3
 SIZE(atom_info%r, 2) =           0
 natom =           3
 SIZE(atom_info%r, 2) =           0
 natom =           3
 SIZE(atom_info%r, 2) =           0
 natom =           3
 SIZE(atom_info%r, 2) =           0
 natom =           3
 SIZE(atom_info%r, 2) =           0
 natom =           3
 SIZE(atom_info%r, 2) =           0
 natom =           3
 SIZE(atom_info%r, 2) =           0
 natom =           3
 SIZE(atom_info%r, 2) =           0
 natom =           3
 SIZE(atom_info%r, 2) =           0
 natom =           3
 SIZE(atom_info%r, 2) =           0
 natom =           3
 SIZE(atom_info%r, 2) =           0
 natom =           3
 SIZE(atom_info%r, 2) =           0
 natom =           3
 SIZE(atom_info%r, 2) =           0
 natom =           3
 SIZE(atom_info%r, 2) =           0
 natom =           3
 SIZE(atom_info%r, 2) =           0
 natom =           3
 SIZE(atom_info%r, 2) =           0
 natom =           3
 SIZE(atom_info%r, 2) =           0
 natom =           3
 SIZE(atom_info%r, 2) =           0
 natom =           3
 SIZE(atom_info%r, 2) =           0
 natom =           3
 SIZE(atom_info%r, 2) =           0
 natom =           3
 SIZE(atom_info%r, 2) =           0
 natom =           3
 SIZE(atom_info%r, 2) =           0
 natom =           3
 SIZE(atom_info%r, 2) =           0
 natom =           3
 SIZE(atom_info%r, 2) =           0
 natom =           3
 SIZE(atom_info%r, 2) =           0
 natom =           3
 SIZE(atom_info%r, 2) =           0
 natom =           3
 SIZE(atom_info%r, 2) =           0
 natom =           3
 SIZE(atom_info%r, 2) =           0
 natom =           3
 SIZE(atom_info%r, 2) =           0
 natom =           3
 SIZE(atom_info%r, 2) =           0
 natom =           3
 SIZE(atom_info%r, 2) =           0
 natom =           3
 SIZE(atom_info%r, 2) =           0
 natom =           3
 SIZE(atom_info%r, 2) =           0
 natom =           3
 SIZE(atom_info%r, 2) =           0
 natom =           3
 SIZE(atom_info%r, 2) =           0
 natom =           3
 SIZE(atom_info%r, 2) =           0
 natom =           3
 SIZE(atom_info%r, 2) =           0
 natom =           3
 SIZE(atom_info%r, 2) =           0
 natom =           3
 SIZE(atom_info%r, 2) =           0
 natom =           3
 SIZE(atom_info%r, 2) =           0
 natom =           3
 SIZE(atom_info%r, 2) =           0
 natom =           3
 SIZE(atom_info%r, 2) =           0
 natom =           3
 SIZE(atom_info%r, 2) =           0
 natom =           3
 SIZE(atom_info%r, 2) =           0
 natom =           3
 SIZE(atom_info%r, 2) =           0
 natom =           3
 SIZE(atom_info%r, 2) =           0
 natom =           3
 SIZE(atom_info%r, 2) =           0
 natom =           3
 SIZE(atom_info%r, 2) =           0
 natom =           3
 SIZE(atom_info%r, 2) =           0
 natom =           3
 SIZE(atom_info%r, 2) =           0
 natom =           3
 SIZE(atom_info%r, 2) =           0
 natom =           3
 SIZE(atom_info%r, 2) =           0
 natom =           3
 SIZE(atom_info%r, 2) =           0
 natom =           3
 SIZE(atom_info%r, 2) =           0
 natom =           3
 SIZE(atom_info%r, 2) =           0
 natom =           3
 SIZE(atom_info%r, 2) =           0
 natom =           3
 SIZE(atom_info%r, 2) =           0
 natom =           3
 SIZE(atom_info%r, 2) =           0
 natom =           3
 SIZE(atom_info%r, 2) =           0
 natom =           3
 SIZE(atom_info%r, 2) =           0
 natom =           3
 SIZE(atom_info%r, 2) =           0
 natom =           3
 SIZE(atom_info%r, 2) =           0
 natom =           3
 SIZE(atom_info%r, 2) =           0
 natom =           3
 SIZE(atom_info%r, 2) =           0
 natom =           3
 SIZE(atom_info%r, 2) =           0
 natom =           3
 SIZE(atom_info%r, 2) =           0
 natom =           3
 SIZE(atom_info%r, 2) =           0
 natom =           3
 SIZE(atom_info%r, 2) =           0
 natom =           3
 SIZE(atom_info%r, 2) =           0
 natom =           3
 SIZE(atom_info%r, 2) =           0
 natom =           3
 SIZE(atom_info%r, 2) =           0
 natom =           3
 SIZE(atom_info%r, 2) =           0
 natom =           3
 SIZE(atom_info%r, 2) =           0
 natom =           3
 SIZE(atom_info%r, 2) =           0
 natom =           3
 SIZE(atom_info%r, 2) =           0
 natom =           3
 SIZE(atom_info%r, 2) =           0
 natom =           3
 SIZE(atom_info%r, 2) =           0
 natom =           3
 SIZE(atom_info%r, 2) =           0
 natom =           3
 SIZE(atom_info%r, 2) =           0
 natom =           3
 SIZE(atom_info%r, 2) =           0
 natom =           3
 SIZE(atom_info%r, 2) =           0
 natom =           3
 SIZE(atom_info%r, 2) =           0
 natom =           3
 SIZE(atom_info%r, 2) =           0
 natom =           3
 SIZE(atom_info%r, 2) =           0
 natom =           3
 SIZE(atom_info%r, 2) =           0
 natom =           3
 SIZE(atom_info%r, 2) =           0
 natom =           3
 SIZE(atom_info%r, 2) =           0
 natom =           3
 SIZE(atom_info%r, 2) =           0
 natom =           3
 SIZE(atom_info%r, 2) =           0
 natom =           3
 SIZE(atom_info%r, 2) =           0
 natom =           3
 SIZE(atom_info%r, 2) =           0
 natom =           3
 SIZE(atom_info%r, 2) =           0
 natom =           3
 SIZE(atom_info%r, 2) =           0
 natom =           3
 SIZE(atom_info%r, 2) =           0
 natom =           3
 SIZE(atom_info%r, 2) =           0
 natom =           3
 SIZE(atom_info%r, 2) =           0
 natom =           3
 SIZE(atom_info%r, 2) =           0
 natom =           3
 SIZE(atom_info%r, 2) =           0
 natom =           3
 SIZE(atom_info%r, 2) =           0
 natom =           3
 SIZE(atom_info%r, 2) =           0
 natom =           3
 SIZE(atom_info%r, 2) =           0
 natom =           3
 SIZE(atom_info%r, 2) =           0
 natom =           3
 SIZE(atom_info%r, 2) =           0
 natom =           3
 SIZE(atom_info%r, 2) =           0
 natom =           3
 SIZE(atom_info%r, 2) =           0
 natom =           3
 SIZE(atom_info%r, 2) =           0
 natom =           3
 SIZE(atom_info%r, 2) =           0
 natom =           3
 SIZE(atom_info%r, 2) =           0
 natom =           3
 SIZE(atom_info%r, 2) =           0
 natom =           3
 SIZE(atom_info%r, 2) =           0
 natom =           3
 SIZE(atom_info%r, 2) =           0
 natom =           3
 SIZE(atom_info%r, 2) =           0
 natom =           3
 SIZE(atom_info%r, 2) =           0
 natom =           3
 SIZE(atom_info%r, 2) =           0
 natom =           3
 SIZE(atom_info%r, 2) =           0
 natom =           3
 SIZE(atom_info%r, 2) =           0
 natom =           3
 SIZE(atom_info%r, 2) =           0
 natom =           3
 SIZE(atom_info%r, 2) =           0
 natom =           3
 SIZE(atom_info%r, 2) =           0
 natom =           3
 SIZE(atom_info%r, 2) =           0
 natom =           3
 SIZE(atom_info%r, 2) =           0
 natom =           3
 SIZE(atom_info%r, 2) =           0
 natom =           3
 SIZE(atom_info%r, 2) =           0
 natom =           3
 SIZE(atom_info%r, 2) =           0
 natom =           3
 SIZE(atom_info%r, 2) =           0
 natom =           3
 SIZE(atom_info%r, 2) =           0
 natom =           3
 SIZE(atom_info%r, 2) =           0
 natom =           3
 SIZE(atom_info%r, 2) =           0
 natom =           3
 SIZE(atom_info%r, 2) =           0
 natom =           3
 SIZE(atom_info%r, 2) =           0
 natom =           3
 SIZE(atom_info%r, 2) =           0
 natom =           3
 SIZE(atom_info%r, 2) =           0
 natom =           3
 SIZE(atom_info%r, 2) =           0
 natom =           3
 SIZE(atom_info%r, 2) =           0
 natom =           3
 SIZE(atom_info%r, 2) =           0
 natom =           3
 SIZE(atom_info%r, 2) =           0
 natom =           3
 SIZE(atom_info%r, 2) =           0
 natom =           3
 SIZE(atom_info%r, 2) =           0
 natom =           3
 SIZE(atom_info%r, 2) =           0
 natom =           3
 SIZE(atom_info%r, 2) =           0
 natom =           3
 SIZE(atom_info%r, 2) =           0
 natom =           3
 SIZE(atom_info%r, 2) =           0
 natom =           3
 SIZE(atom_info%r, 2) =           0
 natom =           3
 SIZE(atom_info%r, 2) =           0
 natom =           3
 SIZE(atom_info%r, 2) =           0
 natom =           3
 SIZE(atom_info%r, 2) =           0
 natom =           3
 SIZE(atom_info%r, 2) =           0
 natom =           3
 SIZE(atom_info%r, 2) =           0
 natom =           3
 SIZE(atom_info%r, 2) =           0
 natom =           3
 SIZE(atom_info%r, 2) =           0
 natom =           3
 SIZE(atom_info%r, 2) =           0
 natom =           3
 SIZE(atom_info%r, 2) =           0
 natom =           3
 SIZE(atom_info%r, 2) =           0
 natom =           3
 SIZE(atom_info%r, 2) =           0
 natom =           3
 SIZE(atom_info%r, 2) =           0
 natom =           3
 SIZE(atom_info%r, 2) =           0
 natom =           3
 SIZE(atom_info%r, 2) =           0
 natom =           3
 SIZE(atom_info%r, 2) =           0
 natom =           3
 SIZE(atom_info%r, 2) =           0
 natom =           3
 SIZE(atom_info%r, 2) =           0
 natom =           3
 SIZE(atom_info%r, 2) =           0
 natom =           3
 SIZE(atom_info%r, 2) =           0
 natom =           3
 SIZE(atom_info%r, 2) =           0
 natom =           3
 SIZE(atom_info%r, 2) =           0
 natom =           3
 SIZE(atom_info%r, 2) =           0
 natom =           3
 SIZE(atom_info%r, 2) =           0
 natom =           3
 SIZE(atom_info%r, 2) =           0
 natom =           3
 SIZE(atom_info%r, 2) =           0
 natom =           3
 SIZE(atom_info%r, 2) =           0
 natom =           3
 SIZE(atom_info%r, 2) =           0
 natom =           3
 SIZE(atom_info%r, 2) =           0
 natom =           3
 SIZE(atom_info%r, 2) =           0
 natom =           3
 SIZE(atom_info%r, 2) =           0
 natom =           3
 SIZE(atom_info%r, 2) =           0
 natom =           3
 SIZE(atom_info%r, 2) =           0
 natom =           3
 SIZE(atom_info%r, 2) =           0
 natom =           3
 SIZE(atom_info%r, 2) =           0
 natom =           3
 SIZE(atom_info%r, 2) =           0
 natom =           3
 SIZE(atom_info%r, 2) =           0
 natom =           3
 SIZE(atom_info%r, 2) =           0
 natom =           3
 SIZE(atom_info%r, 2) =           0
 natom =           3
 SIZE(atom_info%r, 2) =           0
 natom =           3
 SIZE(atom_info%r, 2) =           0
 natom =           3
 SIZE(atom_info%r, 2) =           0
 natom =           3
 SIZE(atom_info%r, 2) =           0
 natom =           3
 SIZE(atom_info%r, 2) =           0
 natom =           3
 SIZE(atom_info%r, 2) =           0
 natom =           3
 SIZE(atom_info%r, 2) =           0
 natom =           3
 SIZE(atom_info%r, 2) =           0
 natom =           3
 SIZE(atom_info%r, 2) =           0
 natom =           3
 SIZE(atom_info%r, 2) =           0
 natom =           3
 SIZE(atom_info%r, 2) =           0
 natom =           3
 SIZE(atom_info%r, 2) =           0
 natom =           3
 SIZE(atom_info%r, 2) =           0
 natom =           3
 SIZE(atom_info%r, 2) =           0
 natom =           3
 SIZE(atom_info%r, 2) =           0
 natom =           3
 SIZE(atom_info%r, 2) =           0
 natom =           3
 SIZE(atom_info%r, 2) =           0
 natom =           3
 SIZE(atom_info%r, 2) =           0
 natom =           3
 SIZE(atom_info%r, 2) =           0
 natom =           3
 SIZE(atom_info%r, 2) =           0
 natom =           3
 SIZE(atom_info%r, 2) =           0
 natom =           3
 SIZE(atom_info%r, 2) =           0
 natom =           3
 SIZE(atom_info%r, 2) =           0
 natom =           3
 SIZE(atom_info%r, 2) =           0
 natom =           3
 SIZE(atom_info%r, 2) =           0
 natom =           3
 SIZE(atom_info%r, 2) =           0
 natom =           3
 SIZE(atom_info%r, 2) =           0
 natom =           3
 SIZE(atom_info%r, 2) =           0
 natom =           3
 SIZE(atom_info%r, 2) =           0
 natom =           3
 SIZE(atom_info%r, 2) =           0
 natom =           3
 SIZE(atom_info%r, 2) =           0
 natom =           3
 SIZE(atom_info%r, 2) =           0
 natom =           3
 SIZE(atom_info%r, 2) =           0
 natom =           3
 SIZE(atom_info%r, 2) =           0
 natom =           3
 SIZE(atom_info%r, 2) =           0
 natom =           3
 SIZE(atom_info%r, 2) =           0
 natom =           3
 SIZE(atom_info%r, 2) =           0
 natom =           3
 SIZE(atom_info%r, 2) =           0
 natom =           3
 SIZE(atom_info%r, 2) =           0
 natom =           3
 SIZE(atom_info%r, 2) =           0
 natom =           3
 SIZE(atom_info%r, 2) =           0
 natom =           3
 SIZE(atom_info%r, 2) =           0
 natom =           3
 SIZE(atom_info%r, 2) =           0
 natom =           3
 SIZE(atom_info%r, 2) =           0
 natom =           3
 SIZE(atom_info%r, 2) =           0
 natom =           3
 SIZE(atom_info%r, 2) =           0
 natom =           3
 SIZE(atom_info%r, 2) =           0
 natom =           3
 SIZE(atom_info%r, 2) =           0
 natom =           3
 SIZE(atom_info%r, 2) =           0
 natom =           3
 SIZE(atom_info%r, 2) =           0
 natom =           3
 SIZE(atom_info%r, 2) =           0
 natom =           3
 SIZE(atom_info%r, 2) =           0
 natom =           3
 SIZE(atom_info%r, 2) =           0
 natom =           3
 SIZE(atom_info%r, 2) =           0
 natom =           3
 SIZE(atom_info%r, 2) =           0
 natom =           3
 SIZE(atom_info%r, 2) =           0
 natom =           3
 SIZE(atom_info%r, 2) =           0
 natom =           3
 SIZE(atom_info%r, 2) =           0
 natom =           3
 SIZE(atom_info%r, 2) =           0
 natom =           3
 SIZE(atom_info%r, 2) =           0
 natom =           3
 SIZE(atom_info%r, 2) =           0
 natom =           3
 SIZE(atom_info%r, 2) =           0
 natom =           3
 SIZE(atom_info%r, 2) =           0
 natom =           3
 SIZE(atom_info%r, 2) =           0
 natom =           3
 SIZE(atom_info%r, 2) =           0
 natom =           3
 SIZE(atom_info%r, 2) =           0
 natom =           3
 SIZE(atom_info%r, 2) =           0
 natom =           3
 SIZE(atom_info%r, 2) =           0
 natom =           3
 SIZE(atom_info%r, 2) =           0
 natom =           3
 SIZE(atom_info%r, 2) =           0
 natom =           3
 SIZE(atom_info%r, 2) =           0
 natom =           3
 SIZE(atom_info%r, 2) =           0
 natom =           3
 SIZE(atom_info%r, 2) =           0
 natom =           3
 SIZE(atom_info%r, 2) =           0
 natom =           3
 SIZE(atom_info%r, 2) =           0
 natom =           3
 SIZE(atom_info%r, 2) =           0
 natom =           3
 SIZE(atom_info%r, 2) =           0
 natom =           3
 SIZE(atom_info%r, 2) =           0
 natom =           3
 SIZE(atom_info%r, 2) =           0
 natom =           3
 SIZE(atom_info%r, 2) =           0
 natom =           3
 SIZE(atom_info%r, 2) =           0
 natom =           3
 SIZE(atom_info%r, 2) =           0
 natom =           3
 SIZE(atom_info%r, 2) =           0
 natom =           3
 SIZE(atom_info%r, 2) =           0
 natom =           3
 SIZE(atom_info%r, 2) =           0
 natom =           3
 SIZE(atom_info%r, 2) =           0
 natom =           3
 SIZE(atom_info%r, 2) =           0
 natom =           3
 SIZE(atom_info%r, 2) =           0
 natom =           3
 SIZE(atom_info%r, 2) =           0
 natom =           3
 SIZE(atom_info%r, 2) =           0
 natom =           3
 SIZE(atom_info%r, 2) =           0
 natom =           3
 SIZE(atom_info%r, 2) =           0
 natom =           3
 SIZE(atom_info%r, 2) =           0
 natom =           3
 SIZE(atom_info%r, 2) =           0
 natom =           3
 SIZE(atom_info%r, 2) =           0
 natom =           3
 SIZE(atom_info%r, 2) =           0
 natom =           3
 SIZE(atom_info%r, 2) =           0
 natom =           3
 SIZE(atom_info%r, 2) =           0
 natom =           3
 SIZE(atom_info%r, 2) =           0
 natom =           3
 SIZE(atom_info%r, 2) =           0
 natom =           3
 SIZE(atom_info%r, 2) =           0
 natom =           3
 SIZE(atom_info%r, 2) =           0
 natom =           3
 SIZE(atom_info%r, 2) =           0
 natom =           3
 SIZE(atom_info%r, 2) =           0
 natom =           3
 SIZE(atom_info%r, 2) =           0
 natom =           3
 SIZE(atom_info%r, 2) =           0
 natom =           3
 SIZE(atom_info%r, 2) =           0
 natom =           3
 SIZE(atom_info%r, 2) =           0
 natom =           3
 SIZE(atom_info%r, 2) =           0
 natom =           3
 SIZE(atom_info%r, 2) =           0
 natom =           3
 SIZE(atom_info%r, 2) =           0
 natom =           3
 SIZE(atom_info%r, 2) =           0
 natom =           3
 SIZE(atom_info%r, 2) =           0
 natom =           3
 SIZE(atom_info%r, 2) =           0
 natom =           3
 SIZE(atom_info%r, 2) =           0
 natom =           3
 SIZE(atom_info%r, 2) =           0
 natom =           3
 SIZE(atom_info%r, 2) =           0
 natom =           3
 SIZE(atom_info%r, 2) =           0
 natom =           3
 SIZE(atom_info%r, 2) =           0
 natom =           3
 SIZE(atom_info%r, 2) =           0
 natom =           3
 SIZE(atom_info%r, 2) =           0
 natom =           3
 SIZE(atom_info%r, 2) =           0
 natom =           3
 SIZE(atom_info%r, 2) =           0
 natom =           3
 SIZE(atom_info%r, 2) =           0
 natom =           3
 SIZE(atom_info%r, 2) =           0
 natom =           3
 SIZE(atom_info%r, 2) =           0
 natom =           3
 SIZE(atom_info%r, 2) =           0
 natom =           3
 SIZE(atom_info%r, 2) =           0
 natom =           3
 SIZE(atom_info%r, 2) =           0
 natom =           3
 SIZE(atom_info%r, 2) =           0
 natom =           3
 SIZE(atom_info%r, 2) =           0
 natom =           3
 SIZE(atom_info%r, 2) =           0
 natom =           3
 SIZE(atom_info%r, 2) =           0
 natom =           3
 SIZE(atom_info%r, 2) =           0
 natom =           3
 SIZE(atom_info%r, 2) =           0
 natom =           3
 SIZE(atom_info%r, 2) =           0
 natom =           3
 SIZE(atom_info%r, 2) =           0
 natom =           3
 SIZE(atom_info%r, 2) =           0
 natom =           3
 SIZE(atom_info%r, 2) =           0
 natom =           3
 SIZE(atom_info%r, 2) =           0
 natom =           3
 SIZE(atom_info%r, 2) =           0
 natom =           3
 SIZE(atom_info%r, 2) =           0
 natom =           3
 SIZE(atom_info%r, 2) =           0
 natom =           3
 SIZE(atom_info%r, 2) =           0
 natom =           3
 SIZE(atom_info%r, 2) =           0
 natom =           3
 SIZE(atom_info%r, 2) =           0
 natom =           3
 SIZE(atom_info%r, 2) =           0
 natom =           3
 SIZE(atom_info%r, 2) =           0
 natom =           3
 SIZE(atom_info%r, 2) =           0
 natom =           3
 SIZE(atom_info%r, 2) =           0
 natom =           3
 SIZE(atom_info%r, 2) =           0
 natom =           3
 SIZE(atom_info%r, 2) =           0
 natom =           3
 SIZE(atom_info%r, 2) =           0
 natom =           3
 SIZE(atom_info%r, 2) =           0
 natom =           3
 SIZE(atom_info%r, 2) =           0
 natom =           3
 SIZE(atom_info%r, 2) =           0
 natom =           3
 SIZE(atom_info%r, 2) =           0
 natom =           3
 SIZE(atom_info%r, 2) =           0
 natom =           3
 SIZE(atom_info%r, 2) =           0
 natom =           3
 SIZE(atom_info%r, 2) =           0
 natom =           3
 SIZE(atom_info%r, 2) =           0
 natom =           3
 SIZE(atom_info%r, 2) =           0
 natom =           3
 SIZE(atom_info%r, 2) =           0
 natom =           3
 SIZE(atom_info%r, 2) =           0
 natom =           3
 SIZE(atom_info%r, 2) =           0
 natom =           3
 SIZE(atom_info%r, 2) =           0
 natom =           3
 SIZE(atom_info%r, 2) =           0
 natom =           3
 SIZE(atom_info%r, 2) =           0
 natom =           3
 SIZE(atom_info%r, 2) =           0
 natom =           3
 SIZE(atom_info%r, 2) =           0
 natom =           3
 SIZE(atom_info%r, 2) =           0
 natom =           3
 SIZE(atom_info%r, 2) =           0
 natom =           3
 SIZE(atom_info%r, 2) =           0
 natom =           3
 SIZE(atom_info%r, 2) =           0
 natom =           3
 SIZE(atom_info%r, 2) =           0
 natom =           3
 SIZE(atom_info%r, 2) =           0
 natom =           3
 SIZE(atom_info%r, 2) =           0
 natom =           3
 SIZE(atom_info%r, 2) =           0
 natom =           3
 SIZE(atom_info%r, 2) =           0
 natom =           3
 SIZE(atom_info%r, 2) =           0
 natom =           3
 SIZE(atom_info%r, 2) =           0
 natom =           3
 SIZE(atom_info%r, 2) =           0
 natom =           3
 SIZE(atom_info%r, 2) =           0
 natom =           3
 SIZE(atom_info%r, 2) =           0
 natom =           3
 SIZE(atom_info%r, 2) =           0
 natom =           3
 SIZE(atom_info%r, 2) =           0
 natom =           3
 SIZE(atom_info%r, 2) =           0
 natom =           3
 SIZE(atom_info%r, 2) =           0
 natom =           3
 SIZE(atom_info%r, 2) =           0
 natom =           3
 SIZE(atom_info%r, 2) =           0
 natom =           3
 SIZE(atom_info%r, 2) =           0
 natom =           3
 SIZE(atom_info%r, 2) =           0
 natom =           3
 SIZE(atom_info%r, 2) =           0
 natom =           3
 SIZE(atom_info%r, 2) =           0
 natom =           3
 SIZE(atom_info%r, 2) =           0
 natom =           3
 SIZE(atom_info%r, 2) =           0
 natom =           3
 SIZE(atom_info%r, 2) =           0
 natom =           3
 SIZE(atom_info%r, 2) =           0
 natom =           3
 SIZE(atom_info%r, 2) =           0
 natom =           3
 SIZE(atom_info%r, 2) =           0
 natom =           3
 SIZE(atom_info%r, 2) =           0
 natom =           3
 SIZE(atom_info%r, 2) =           0
 natom =           3
 SIZE(atom_info%r, 2) =           0
 natom =           3
 SIZE(atom_info%r, 2) =           0
 natom =           3
 SIZE(atom_info%r, 2) =           0
 natom =           3
 SIZE(atom_info%r, 2) =           0
 natom =           3
 SIZE(atom_info%r, 2) =           0
 natom =           3
 SIZE(atom_info%r, 2) =           0
 natom =           3
 SIZE(atom_info%r, 2) =           0
 natom =           3
 SIZE(atom_info%r, 2) =           0
 natom =           3
 SIZE(atom_info%r, 2) =           0
 natom =           3
 SIZE(atom_info%r, 2) =           0
 natom =           3
 SIZE(atom_info%r, 2) =           0
 natom =           3
 SIZE(atom_info%r, 2) =           0
 natom =           3
 SIZE(atom_info%r, 2) =           0
 natom =           3
 SIZE(atom_info%r, 2) =           0
 natom =           3
 SIZE(atom_info%r, 2) =           0
 natom =           3
 SIZE(atom_info%r, 2) =           0
 natom =           3
 SIZE(atom_info%r, 2) =           0
 natom =           3
 SIZE(atom_info%r, 2) =           0
 natom =           3
 SIZE(atom_info%r, 2) =           0
 natom =           3
 SIZE(atom_info%r, 2) =           0
 natom =           3
 SIZE(atom_info%r, 2) =           0
 natom =           3
 SIZE(atom_info%r, 2) =           0
 natom =           3
 SIZE(atom_info%r, 2) =           0
 natom =           3
 SIZE(atom_info%r, 2) =           0
 natom =           3
 SIZE(atom_info%r, 2) =           0
 natom =           3
 SIZE(atom_info%r, 2) =           0
 natom =           3
 SIZE(atom_info%r, 2) =           0
 natom =           3
 SIZE(atom_info%r, 2) =           0
 natom =           3
 SIZE(atom_info%r, 2) =           0
 natom =           3
 SIZE(atom_info%r, 2) =           0
 natom =           3
 SIZE(atom_info%r, 2) =           0
 natom =           3
 SIZE(atom_info%r, 2) =           0
 natom =           3
 SIZE(atom_info%r, 2) =           0
 natom =           3
 SIZE(atom_info%r, 2) =           0
 natom =           3
 SIZE(atom_info%r, 2) =           0
 natom =           3
 SIZE(atom_info%r, 2) =           0
 natom =           3
 SIZE(atom_info%r, 2) =           0
 natom =           3
 SIZE(atom_info%r, 2) =           0
 natom =           3
 SIZE(atom_info%r, 2) =           0
 natom =           3
 SIZE(atom_info%r, 2) =           0
 natom =           3
 SIZE(atom_info%r, 2) =           0
 natom =           3
 SIZE(atom_info%r, 2) =           0
 natom =           3
 SIZE(atom_info%r, 2) =           0
 natom =           3
 SIZE(atom_info%r, 2) =           0
 natom =           3
 SIZE(atom_info%r, 2) =           0
 natom =           3
 SIZE(atom_info%r, 2) =           0
 natom =           3
 SIZE(atom_info%r, 2) =           0
 natom =           3
 SIZE(atom_info%r, 2) =           0
 natom =           3
 SIZE(atom_info%r, 2) =           0
 natom =           3
 SIZE(atom_info%r, 2) =           0
 natom =           3
 SIZE(atom_info%r, 2) =           0
 natom =           3
 SIZE(atom_info%r, 2) =           0
 natom =           3
 SIZE(atom_info%r, 2) =           0
 natom =           3
 SIZE(atom_info%r, 2) =           0
 natom =           3
 SIZE(atom_info%r, 2) =           0
 natom =           3
 SIZE(atom_info%r, 2) =           0
 natom =           3
 SIZE(atom_info%r, 2) =           0
 natom =           3
 SIZE(atom_info%r, 2) =           0
 natom =           3
 SIZE(atom_info%r, 2) =           0
 natom =           3
 SIZE(atom_info%r, 2) =           0
 natom =           3
 SIZE(atom_info%r, 2) =           0
 natom =           3
 SIZE(atom_info%r, 2) =           0
 natom =           3
 SIZE(atom_info%r, 2) =           0
 natom =           3
 SIZE(atom_info%r, 2) =           0
 natom =           3
 SIZE(atom_info%r, 2) =           0
 natom =           3
 SIZE(atom_info%r, 2) =           0
 natom =           3
 SIZE(atom_info%r, 2) =           0
 natom =           3
 SIZE(atom_info%r, 2) =           0
 natom =           3
 SIZE(atom_info%r, 2) =           0
 natom =           3
 SIZE(atom_info%r, 2) =           0
 natom =           3
 SIZE(atom_info%r, 2) =           0
 natom =           3
 SIZE(atom_info%r, 2) =           0
 natom =           3
 SIZE(atom_info%r, 2) =           0
 natom =           3
 SIZE(atom_info%r, 2) =           0
 natom =           3
 SIZE(atom_info%r, 2) =           0
 natom =           3
 SIZE(atom_info%r, 2) =           0
 natom =           3
 SIZE(atom_info%r, 2) =           0
 natom =           3
 SIZE(atom_info%r, 2) =           0
 natom =           3
 SIZE(atom_info%r, 2) =           0
 natom =           3
 SIZE(atom_info%r, 2) =           0
 natom =           3
 SIZE(atom_info%r, 2) =           0
 natom =           3
 SIZE(atom_info%r, 2) =           0
 natom =           3
 SIZE(atom_info%r, 2) =           0
 natom =           3
 SIZE(atom_info%r, 2) =           0
 natom =           3
 SIZE(atom_info%r, 2) =           0
 natom =           3
 SIZE(atom_info%r, 2) =           0
 natom =           3
 SIZE(atom_info%r, 2) =           0
 natom =           3
 SIZE(atom_info%r, 2) =           0
 natom =           3
 SIZE(atom_info%r, 2) =           0
 natom =           3
 SIZE(atom_info%r, 2) =           0
 natom =           3
 SIZE(atom_info%r, 2) =           0
 natom =           3
 SIZE(atom_info%r, 2) =           0
 natom =           3
 SIZE(atom_info%r, 2) =           0
 natom =           3
 SIZE(atom_info%r, 2) =           0
 natom =           3
 SIZE(atom_info%r, 2) =           0
 natom =           3
 SIZE(atom_info%r, 2) =           0
 natom =           3
 SIZE(atom_info%r, 2) =           0
 natom =           3
 SIZE(atom_info%r, 2) =           0
 natom =           3
 SIZE(atom_info%r, 2) =           0
 natom =           3
 SIZE(atom_info%r, 2) =           0
 natom =           3
 SIZE(atom_info%r, 2) =           0
 natom =           3
 SIZE(atom_info%r, 2) =           0
 natom =           3
 SIZE(atom_info%r, 2) =           0
 natom =           3
 SIZE(atom_info%r, 2) =           0
 natom =           3
 SIZE(atom_info%r, 2) =           0
 natom =           3
 SIZE(atom_info%r, 2) =           0
 natom =           3
 SIZE(atom_info%r, 2) =           0
 natom =           3
 SIZE(atom_info%r, 2) =           0
 natom =           3
 SIZE(atom_info%r, 2) =           0
 natom =           3
 SIZE(atom_info%r, 2) =           0
 natom =           3
 SIZE(atom_info%r, 2) =           0
 natom =           3
 SIZE(atom_info%r, 2) =           0
 natom =           3
 SIZE(atom_info%r, 2) =           0
 natom =           3
 SIZE(atom_info%r, 2) =           0
 natom =           3
 SIZE(atom_info%r, 2) =           0
 natom =           3
 SIZE(atom_info%r, 2) =           0
 natom =           3
 SIZE(atom_info%r, 2) =           0
 natom =           3
 SIZE(atom_info%r, 2) =           0
 natom =           3
 SIZE(atom_info%r, 2) =           0
 natom =           3
 SIZE(atom_info%r, 2) =           0
 natom =           3
 SIZE(atom_info%r, 2) =           0
 natom =           3
 SIZE(atom_info%r, 2) =           0
 natom =           3
 SIZE(atom_info%r, 2) =           0
 natom =           3
 SIZE(atom_info%r, 2) =           0
 natom =           3
 SIZE(atom_info%r, 2) =           0
 natom =           3
 SIZE(atom_info%r, 2) =           0
 natom =           3
 SIZE(atom_info%r, 2) =           0
 natom =           3
 SIZE(atom_info%r, 2) =           0
 natom =           3
 SIZE(atom_info%r, 2) =           0
 natom =           3
 SIZE(atom_info%r, 2) =           0
 natom =           3
 SIZE(atom_info%r, 2) =           0
 natom =           3
 SIZE(atom_info%r, 2) =           0
 natom =           3
 SIZE(atom_info%r, 2) =           0
 natom =           3
 SIZE(atom_info%r, 2) =           0
 natom =           3
 SIZE(atom_info%r, 2) =           0
 natom =           3
 SIZE(atom_info%r, 2) =           0
 natom =           3
 SIZE(atom_info%r, 2) =           0
 natom =           3
 SIZE(atom_info%r, 2) =           0
 natom =           3
 SIZE(atom_info%r, 2) =           0
 natom =           3
 SIZE(atom_info%r, 2) =           0
 natom =           3
 SIZE(atom_info%r, 2) =           0
 natom =           3
 SIZE(atom_info%r, 2) =           0
 natom =           3
 SIZE(atom_info%r, 2) =           0
 natom =           3
 SIZE(atom_info%r, 2) =           0
 natom =           3
 SIZE(atom_info%r, 2) =           0
 natom =           3
 SIZE(atom_info%r, 2) =           0
 natom =           3
 SIZE(atom_info%r, 2) =           0
 natom =           3
 SIZE(atom_info%r, 2) =           0
 natom =           3
 SIZE(atom_info%r, 2) =           0
 natom =           3
 SIZE(atom_info%r, 2) =           0
 natom =           3
 SIZE(atom_info%r, 2) =           0
 natom =           3
 SIZE(atom_info%r, 2) =           0
 natom =           3
 SIZE(atom_info%r, 2) =           0
 natom =           3
 SIZE(atom_info%r, 2) =           0
 natom =           3
 SIZE(atom_info%r, 2) =           0
 natom =           3
 SIZE(atom_info%r, 2) =           0
 natom =           3
 SIZE(atom_info%r, 2) =           0
 natom =           3
 SIZE(atom_info%r, 2) =           0
 natom =           3
 SIZE(atom_info%r, 2) =           0
 natom =           3
 SIZE(atom_info%r, 2) =           0
 natom =           3
 SIZE(atom_info%r, 2) =           0
 natom =           3
 SIZE(atom_info%r, 2) =           0
 natom =           3
 SIZE(atom_info%r, 2) =           0
 natom =           3
 SIZE(atom_info%r, 2) =           0
 natom =           3
 SIZE(atom_info%r, 2) =           0
 natom =           3
 SIZE(atom_info%r, 2) =           0
 natom =           3
 SIZE(atom_info%r, 2) =           0
 natom =           3
 SIZE(atom_info%r, 2) =           0
 natom =           3
 SIZE(atom_info%r, 2) =           0
 natom =           3
 SIZE(atom_info%r, 2) =           0
 natom =           3
 SIZE(atom_info%r, 2) =           0
 natom =           3
 SIZE(atom_info%r, 2) =           0
 natom =           3
 SIZE(atom_info%r, 2) =           0
 natom =           3
 SIZE(atom_info%r, 2) =           0
 natom =           3
 SIZE(atom_info%r, 2) =           0
 natom =           3
 SIZE(atom_info%r, 2) =           0
 natom =           3
 SIZE(atom_info%r, 2) =           0
 natom =           3
 SIZE(atom_info%r, 2) =           0
 natom =           3
 SIZE(atom_info%r, 2) =           0
 natom =           3
 SIZE(atom_info%r, 2) =           0
 natom =           3
 SIZE(atom_info%r, 2) =           0
 natom =           3
 SIZE(atom_info%r, 2) =           0
 natom =           3
 SIZE(atom_info%r, 2) =           0
 natom =           3
 SIZE(atom_info%r, 2) =           0
 natom =           3
 SIZE(atom_info%r, 2) =           0
 natom =           3
 SIZE(atom_info%r, 2) =           0
 natom =           3
 SIZE(atom_info%r, 2) =           0
 natom =           3
 SIZE(atom_info%r, 2) =           0
 natom =           3
 SIZE(atom_info%r, 2) =           0
 natom =           3
 SIZE(atom_info%r, 2) =           0
 natom =           3
 SIZE(atom_info%r, 2) =           0
 natom =           3
 SIZE(atom_info%r, 2) =           0
 natom =           3
 SIZE(atom_info%r, 2) =           0
 natom =           3
 SIZE(atom_info%r, 2) =           0
 natom =           3
 SIZE(atom_info%r, 2) =           0
 natom =           3
 SIZE(atom_info%r, 2) =           0
 natom =           3
 SIZE(atom_info%r, 2) =           0
 natom =           3
 SIZE(atom_info%r, 2) =           0
 natom =           3
 SIZE(atom_info%r, 2) =           0
 natom =           3
 SIZE(atom_info%r, 2) =           0
 natom =           3
 SIZE(atom_info%r, 2) =           0
 natom =           3
 SIZE(atom_info%r, 2) =           0
 natom =           3
 SIZE(atom_info%r, 2) =           0
 natom =           3
 SIZE(atom_info%r, 2) =           0
 natom =           3
 SIZE(atom_info%r, 2) =           0
 natom =           3
 SIZE(atom_info%r, 2) =           0
 natom =           3
 SIZE(atom_info%r, 2) =           0
 natom =           3
 SIZE(atom_info%r, 2) =           0
 natom =           3
 SIZE(atom_info%r, 2) =           0
 natom =           3
 SIZE(atom_info%r, 2) =           0
 natom =           3
 SIZE(atom_info%r, 2) =           0
 natom =           3
 SIZE(atom_info%r, 2) =           0
 natom =           3
 SIZE(atom_info%r, 2) =           0
 natom =           3
 SIZE(atom_info%r, 2) =           0
 natom =           3
 SIZE(atom_info%r, 2) =           0
 natom =           3
 SIZE(atom_info%r, 2) =           0
 natom =           3
 SIZE(atom_info%r, 2) =           0
 natom =           3
 SIZE(atom_info%r, 2) =           0
 natom =           3
 SIZE(atom_info%r, 2) =           0
 natom =           3
 SIZE(atom_info%r, 2) =           0
 natom =           3
 SIZE(atom_info%r, 2) =           0
 natom =           3
 SIZE(atom_info%r, 2) =           0
 natom =           3
 SIZE(atom_info%r, 2) =           0
 natom =           3
 SIZE(atom_info%r, 2) =           0
 natom =           3
 SIZE(atom_info%r, 2) =           0
 natom =           3
 SIZE(atom_info%r, 2) =           0
 natom =           3
 SIZE(atom_info%r, 2) =           0
 natom =           3
 SIZE(atom_info%r, 2) =           0
 natom =           3
 SIZE(atom_info%r, 2) =           0
 natom =           3
 SIZE(atom_info%r, 2) =           0
 natom =           3
 SIZE(atom_info%r, 2) =           0
 natom =           3
 SIZE(atom_info%r, 2) =           0
 natom =           3
 SIZE(atom_info%r, 2) =           0
 natom =           3
 SIZE(atom_info%r, 2) =           0
 natom =           3
 SIZE(atom_info%r, 2) =           0
 natom =           3
 SIZE(atom_info%r, 2) =           0
 natom =           3
 SIZE(atom_info%r, 2) =           0
 natom =           3
 SIZE(atom_info%r, 2) =           0
 natom =           3
 SIZE(atom_info%r, 2) =           0
 natom =           3
 SIZE(atom_info%r, 2) =           0
 natom =           3
 SIZE(atom_info%r, 2) =           0
 natom =           3
 SIZE(atom_info%r, 2) =           0
 natom =           3
 SIZE(atom_info%r, 2) =           0
 natom =           3
 SIZE(atom_info%r, 2) =           0
 natom =           3
 SIZE(atom_info%r, 2) =           0
 natom =           3
 SIZE(atom_info%r, 2) =           0
 natom =           3
 SIZE(atom_info%r, 2) =           0
 natom =           3
 SIZE(atom_info%r, 2) =           0
 natom =           3
 SIZE(atom_info%r, 2) =           0
 natom =           3
 SIZE(atom_info%r, 2) =           0
 natom =           3
 SIZE(atom_info%r, 2) =           0
 natom =           3
 SIZE(atom_info%r, 2) =           0
 natom =           3
 SIZE(atom_info%r, 2) =           0
 natom =           3
 SIZE(atom_info%r, 2) =           0
 natom =           3
 SIZE(atom_info%r, 2) =           0
 natom =           3
 SIZE(atom_info%r, 2) =           0
 natom =           3
 SIZE(atom_info%r, 2) =           0
 natom =           3
 SIZE(atom_info%r, 2) =           0
 natom =           3
 SIZE(atom_info%r, 2) =           0
 natom =           3
 SIZE(atom_info%r, 2) =           0
 natom =           3
 SIZE(atom_info%r, 2) =           0
 natom =           3
 SIZE(atom_info%r, 2) =           0
 natom =           3
 SIZE(atom_info%r, 2) =           0
 natom =           3
 SIZE(atom_info%r, 2) =           0
 natom =           3
 SIZE(atom_info%r, 2) =           0
 natom =           3
 SIZE(atom_info%r, 2) =           0
 natom =           3
 SIZE(atom_info%r, 2) =           0
 natom =           3
 SIZE(atom_info%r, 2) =           0
 natom =           3
 SIZE(atom_info%r, 2) =           0
 natom =           3
 SIZE(atom_info%r, 2) =           0
 natom =           3
 SIZE(atom_info%r, 2) =           0
 natom =           3
 SIZE(atom_info%r, 2) =           0
 natom =           3
 SIZE(atom_info%r, 2) =           0
 natom =           3
 SIZE(atom_info%r, 2) =           0
 natom =           3
 SIZE(atom_info%r, 2) =           0
 natom =           3
 SIZE(atom_info%r, 2) =           0
 natom =           3
 SIZE(atom_info%r, 2) =           0
 natom =           3
 SIZE(atom_info%r, 2) =           0
 natom =           3
 SIZE(atom_info%r, 2) =           0
 natom =           3
 SIZE(atom_info%r, 2) =           0
 natom =           3
 SIZE(atom_info%r, 2) =           0
 natom =           3
 SIZE(atom_info%r, 2) =           0
 natom =           3
 SIZE(atom_info%r, 2) =           0
 natom =           3
 SIZE(atom_info%r, 2) =           0
 natom =           3
 SIZE(atom_info%r, 2) =           0
 natom =           3
 SIZE(atom_info%r, 2) =           0
 natom =           3
 SIZE(atom_info%r, 2) =           0
 natom =           3
 SIZE(atom_info%r, 2) =           0
 natom =           3
 SIZE(atom_info%r, 2) =           0
 natom =           3
 SIZE(atom_info%r, 2) =           0
 natom =           3
 SIZE(atom_info%r, 2) =           0
 natom =           3
 SIZE(atom_info%r, 2) =           0
 natom =           3
 SIZE(atom_info%r, 2) =           0
 natom =           3
 SIZE(atom_info%r, 2) =           0
 natom =           3
 SIZE(atom_info%r, 2) =           0
 natom =           3
 SIZE(atom_info%r, 2) =           0
 natom =           3
 SIZE(atom_info%r, 2) =           0
 natom =           3
 SIZE(atom_info%r, 2) =           0
 natom =           3
 SIZE(atom_info%r, 2) =           0
 natom =           3
 SIZE(atom_info%r, 2) =           0
 natom =           3
 SIZE(atom_info%r, 2) =           0
 natom =           3
 SIZE(atom_info%r, 2) =           0
 natom =           3
 SIZE(atom_info%r, 2) =           0
 natom =           3
 SIZE(atom_info%r, 2) =           0
 natom =           3
 SIZE(atom_info%r, 2) =           0
 natom =           3
 SIZE(atom_info%r, 2) =           0
 natom =           3
 SIZE(atom_info%r, 2) =           0
 natom =           3
 SIZE(atom_info%r, 2) =           0
 natom =           3
 SIZE(atom_info%r, 2) =           0
 natom =           3
 SIZE(atom_info%r, 2) =           0
 natom =           3
 SIZE(atom_info%r, 2) =           0
 natom =           3
 SIZE(atom_info%r, 2) =           0
 natom =           3
 SIZE(atom_info%r, 2) =           0
 natom =           3
 SIZE(atom_info%r, 2) =           0
 natom =           3
 SIZE(atom_info%r, 2) =           0
 natom =           3
 SIZE(atom_info%r, 2) =           0
 natom =           3
 SIZE(atom_info%r, 2) =           0
 natom =           3
 SIZE(atom_info%r, 2) =           0
 natom =           3
 SIZE(atom_info%r, 2) =           0
 natom =           3
 SIZE(atom_info%r, 2) =           0
 natom =           3
 SIZE(atom_info%r, 2) =           0
 natom =           3
 SIZE(atom_info%r, 2) =           0
 natom =           3
 SIZE(atom_info%r, 2) =           0
 natom =           3
 SIZE(atom_info%r, 2) =           0
 natom =           3
 SIZE(atom_info%r, 2) =           0
 natom =           3
 SIZE(atom_info%r, 2) =           0
 natom =           3
 SIZE(atom_info%r, 2) =           0
 natom =           3
 SIZE(atom_info%r, 2) =           0
 natom =           3
 SIZE(atom_info%r, 2) =           0
 natom =           3
 SIZE(atom_info%r, 2) =           0
 natom =           3
 SIZE(atom_info%r, 2) =           0
 natom =           3
 SIZE(atom_info%r, 2) =           0
 natom =           3
 SIZE(atom_info%r, 2) =           0
 natom =           3
 SIZE(atom_info%r, 2) =           0
 natom =           3
 SIZE(atom_info%r, 2) =           0
 natom =           3
 SIZE(atom_info%r, 2) =           0
 natom =           3
 SIZE(atom_info%r, 2) =           0
 natom =           3
 SIZE(atom_info%r, 2) =           0
 natom =           3
 SIZE(atom_info%r, 2) =           0
 natom =           3
 SIZE(atom_info%r, 2) =           0
 natom =           3
 SIZE(atom_info%r, 2) =           0
 natom =           3
 SIZE(atom_info%r, 2) =           0
 natom =           3
 SIZE(atom_info%r, 2) =           0
 natom =           3
 SIZE(atom_info%r, 2) =           0
 natom =           3
 SIZE(atom_info%r, 2) =           0
 natom =           3
 SIZE(atom_info%r, 2) =           0
 natom =           3
 SIZE(atom_info%r, 2) =           0
 natom =           3
 SIZE(atom_info%r, 2) =           0
 natom =           3
 SIZE(atom_info%r, 2) =           0
 natom =           3
 SIZE(atom_info%r, 2) =           0
 natom =           3
 SIZE(atom_info%r, 2) =           0
 natom =           3
 SIZE(atom_info%r, 2) =           0
 natom =           3
 SIZE(atom_info%r, 2) =           0
 natom =           3
 SIZE(atom_info%r, 2) =           0
 natom =           3
 SIZE(atom_info%r, 2) =           0
 natom =           3
 SIZE(atom_info%r, 2) =           0
 natom =           3
 SIZE(atom_info%r, 2) =           0
 natom =           3
 SIZE(atom_info%r, 2) =           0
 natom =           3
 SIZE(atom_info%r, 2) =           0
 natom =           3
 SIZE(atom_info%r, 2) =           0
 natom =           3
 SIZE(atom_info%r, 2) =           0
 natom =           3
 SIZE(atom_info%r, 2) =           0
 natom =           3
 SIZE(atom_info%r, 2) =           0
 natom =           3
 SIZE(atom_info%r, 2) =           0
 natom =           3
 SIZE(atom_info%r, 2) =           0
 natom =           3
 SIZE(atom_info%r, 2) =           0
 natom =           3
 SIZE(atom_info%r, 2) =           0
 natom =           3
 SIZE(atom_info%r, 2) =           0
 natom =           3
 SIZE(atom_info%r, 2) =           0
 natom =           3
 SIZE(atom_info%r, 2) =           0
 natom =           3
 SIZE(atom_info%r, 2) =           0
 natom =           3
 SIZE(atom_info%r, 2) =           0
 natom =           3
 SIZE(atom_info%r, 2) =           0
 natom =           3
 SIZE(atom_info%r, 2) =           0
 natom =           3
 SIZE(atom_info%r, 2) =           0
 natom =           3
 SIZE(atom_info%r, 2) =           0
 natom =           3
 SIZE(atom_info%r, 2) =           0
 natom =           3
 SIZE(atom_info%r, 2) =           0
 natom =           3
 SIZE(atom_info%r, 2) =           0
 natom =           3
 SIZE(atom_info%r, 2) =           0
 natom =           3
[...]
 flops    17 x    35 x    96         493413412800       0.0%    100.0%      0.0%
 flops    35 x    35 x    96         512123304000       0.0%    100.0%      0.0%
 flops inhomo. stacks                368186040882     100.0%      0.0%      0.0%
 flops total                         4.425876E+12       8.3%     91.7%      0.0%
 flops max/rank                      4.587066E+09       7.4%     92.6%      0.0%
 matmuls inhomo. stacks                     24320     100.0%      0.0%      0.0%
 matmuls total                           35489092       0.1%     99.9%      0.0%
 number of processed stacks               2489856       1.0%     99.0%      0.0%
 average stack size                                     1.0      14.4       0.0
 marketing flops                     1.427296E+12
 -------------------------------------------------------------------------------
 # multiplications                              8
 max memory usage/rank             806.830080E+06
 # max total images/rank                        5
 # max 3D layers                                1
 # MPI messages exchanged                 1576960
 MPI messages size (bytes):
  total size                       404.638401E+09
  min size                           0.000000E+00
  max size                         596.032000E+03
  average size                     256.593953E+03
 MPI breakdown and total messages size (bytes):
             size <=      128              110400                        0
       128 < size <=     8192                   0                        0
      8192 < size <=    32768               78000               1890547920
     32768 < size <=   131072              579420              50291395920
    131072 < size <=  4194304              809140             352456549056
   4194304 < size <= 16777216                   0                        0
  16777216 < size                               0                        0
 -------------------------------------------------------------------------------

 *** WARNING in dbcsr_mm.F:290 :: Using a non-square number of MPI ranks   ***
 *** might lead to poor performance. Used ranks: 1280 Suggested: 1296 2601 ***

 -------------------------------------------------------------------------------
 -                                                                             -
 -                      DBCSR MESSAGE PASSING PERFORMANCE                      -
 -                                                                             -
 -------------------------------------------------------------------------------
 ROUTINE             CALLS      AVE VOLUME [Bytes]
 MP_Bcast              106                     12.
 MP_Allreduce          273                     23.
 MP_Alltoall         99159                4264241.
 MP_ISend             2560                 124520.
 MP_IRecv             2560                 124041.
 -------------------------------------------------------------------------------

 -------------------------------------------------------------------------------
 -                                                                             -
 -                                DBM STATISTICS                               -
 -                                                                             -
 -------------------------------------------------------------------------------
    M  x    N  x    K                                          COUNT     PERCENT
    ?  x   ??  x  ???                                    27827046889       2.25%
   ??  x >999  x    ?                                     6113004421       0.49%
    ?  x   ??  x >999                                     5526357132       0.45%
   ??  x >999  x   ??                                     1215129795       0.10%
   ??  x   ??  x >999                                     1096011408       0.09%
    ?  x  ???  x    ?                                   185182889114      14.99%
    ?  x    ?  x    ?                                   395457015546      32.01%
    ?  x  ???  x   ??                                    38910106792       3.15%
    ?  x >999  x    ?                                    34594165129       2.80%
   ??  x   ??  x  ???                                   128595205496      10.41%
  ???  x   ??  x   ??                                   136913286376      11.08%
    ?  x    ?  x >999                                    28863058111       2.34%
   ??  x   ??  x   ??                                    24316496496       1.97%
    ?  x    ?  x  ???                                   140120682913      11.34%
   ??  x  ???  x    ?                                    32722695754       2.65%
    ?  x >999  x   ??                                     6883899447       0.56%
   ??  x  ???  x   ??                                     6868503048       0.56%
   ??  x    ?  x  ???                                    28308204167       2.29%
   ??  x    ?  x >999                                     5731015279       0.46%
 -------------------------------------------------------------------------------

 -------------------------------------------------------------------------------
 -                                                                             -
 -                                GRID STATISTICS                              -
 -                                                                             -
 -------------------------------------------------------------------------------
 LP    KERNEL             BACKEND                              COUNT     PERCENT
 5     collocate general  REF                                4795230      21.36%
 5     integrate general  REF                                4795230      21.36%
 4     collocate general  REF                                4394115      19.57%
 4     integrate general  REF                                4394115      19.57%
 6     collocate general  REF                                1340075       5.97%
 6     integrate general  REF                                1340075       5.97%
 0     collocate general  REF                                 929280       4.14%
 0     integrate general  REF                                 464640       2.07%
 -------------------------------------------------------------------------------

 MEMORY| Estimated peak process memory [MiB]                                5678

 -------------------------------------------------------------------------------
 ----                             MULTIGRID INFO                            ----
 -------------------------------------------------------------------------------
 count for grid        1:       42508955          cutoff [a.u.]          250.00
 count for grid        2:       21312314          cutoff [a.u.]           83.33
 count for grid        3:       21199543          cutoff [a.u.]           27.78
 count for grid        4:         220160          cutoff [a.u.]            9.26
 total gridlevel count  :       85240972

 -------------------------------------------------------------------------------
 -                                                                             -
 -                         MESSAGE PASSING PERFORMANCE                         -
 -                                                                             -
 -------------------------------------------------------------------------------

 ROUTINE             CALLS      AVE VOLUME [Bytes]
 MP_Group             5935
 MP_Bcast            16492                 522608.
 MP_Allreduce        11649                  19263.
 MP_Sync              8992
 MP_Alltoall          3913                 211133.
 MP_SendRecv         12790                   7200.
 MP_ISendRecv        12790                   7200.
 MP_Wait             22787
 MP_comm_split        3468
 MP_ISend           812156                 215430.
 MP_IRecv           894466                 219998.
 MP_Recv               260                2137344.
 -------------------------------------------------------------------------------


 -------------------------------------------------------------------------------
 -                                                                             -
 -                           R E F E R E N C E S                               -
 -                                                                             -
 -------------------------------------------------------------------------------
 
 CP2K version 2023.1 (Development Version), the CP2K developers group (2023).
 CP2K is freely available from https://www.cp2k.org/ .

 Kuehne,Thomas D.; Iannuzzi,Marcella; Del Ben,Mauro;
 Rybkin,Vladimir V.; Seewald,Patrick; Stein,Frederick; Laino,Teodoro;
 Khaliullin,Rustam Z.; Schuett,Ole; Schiffmann,Florian; Golze,Dorothea;
 Wilhelm,Jan; Chulkov,Sergey; Bani-Hashemian,Mohammad Hossein;
 Weber,Valery; Borstnik,Urban; Taillefumier,Mathieu;
 Jakobovits,Alice Shoshana; Lazzaro,Alfio; Pabst,Hans; Mueller,Tiziano;
 Schade,Robert; Guidon,Manuel; Andermatt,Samuel; Holmberg,Nico;
 Schenter,Gregory K.; Hehn,Anna; Bussy,Augustin; Belleflamme,Fabian;
 Tabacchi,Gloria; Gloess,Andreas; Lass,Michael; Bethune,Iain;
 Mundy,Christopher J.; Plessl,Christian; Watkins,Matt;
 VandeVondele,Joost; Krack,Matthias; Hutter,Juerg. 
 The Journal of Chemical Physics, 152 (19), (2020). 
 CP2K: An electronic structure and molecular dynamics software package -
 Quickstep: Efficient and accurate electronic structure calculations.
 https://doi.org/10.1063/5.0007045

 Wilhelm, J; Golze, D; Talirz, L; Hutter, J; Pignedoli, CA. 
 JOURNAL OF PHYSICAL CHEMISTRY LETTERS, 9, 306-312 (2018). 
 Toward GW calculations on thousands of atoms.
 https://doi.org/10.1021/acs.jpclett.7b02740

 Wilhelm, J; Hutter, J. PHYSICAL REVIEW B, 95, 235123 (2017). 
 Periodic GW calculations in the Gaussian and plane-waves scheme.
 https://doi.org/10.1103/PhysRevB.95.235123

 Wilhelm, J; Del Ben, M; Hutter, J. 
 JOURNAL OF CHEMICAL THEORY AND COMPUTATION, 12, 3623-3635 (2016). 
 GW in the Gaussian and plane waves scheme with application to linear acenes.
 https://doi.org/10.1021/acs.jctc.6b00380

 Wilhelm, J; Seewald, P; Del Ben, M; Hutter, J. 
 JOURNAL OF CHEMICAL THEORY AND COMPUTATION, 12, 5851-5859 (2016). 
 Large-Scale Cubic-Scaling Random Phase Approximation Correlation.
 https://doi.org/10.1021/acs.jctc.6b00840

 Schuett, Ole; Messmer, Peter; Hutter, Juerg; VandeVondele, Joost. 
 Electronic Structure Calculations on Graphics Processing Units, John
 Wiley & Sons, Ltd, 173-190 (2016). 
 GPU-Accelerated Sparse Matrix-Matrix Multiplication for
 Linear Scaling Density Functional Theory.
 https://doi.org/10.1002/9781118670712.ch8

 Heinecke, A; Henry, G; Hutchinson, M; Pabst, H. 
 Proceedings of Intl. Supercomputing Conference, 981-991 (2016). 
 LIBXSMM: Accelerating Small Matrix Multiplications
 by Runtime Code Generation.
 https://doi.org/10.1109/SC.2016.83

 Del Ben, M; Schuett, O; Wentz, T; Messmer, P; Hutter, J;
 VandeVondele, J. 
 COMPUTER PHYSICS COMMUNICATIONS, 187, 120-129 (2015). 
 Enabling simulation at the fifth rung of DFT: Large scale RPA
 calculations with excellent time to solution.
 https://doi.org/10.1016/j.cpc.2014.10.021

 Borstnik, U; VandeVondele, J; Weber, V; Hutter, J. 
 PARALLEL COMPUTING, 40 (5-6), 47-58 (2014). 
 Sparse matrix multiplication: The distributed block-compressed sparse
 row library.
 https://doi.org/10.1016/j.parco.2014.03.012

 Hutter, J; Iannuzzi, M; Schiffmann, F; VandeVondele, J. 
 WIREs Comput Mol Sci., 4 (1), 15-25 (2014). 
 CP2K: atomistic simulations of condensed matter systems.
 https://doi.org/10.1002/wcms.1159

 Del Ben, M; Hutter, J; VandeVondele, J. 
 JOURNAL OF CHEMICAL THEORY AND COMPUTATION, 9 (6), 2654-2671 (2013). 
 Electron Correlation in the Condensed Phase from a Resolution of
 Identity Approach Based on the Gaussian and Plane Waves Scheme.
 https://doi.org/10.1021/ct4002202

 Del Ben, M; Hutter, J; VandeVondele, J. 
 JOURNAL OF CHEMICAL THEORY AND COMPUTATION, 8 (11), 4177-4188 (2012). 
 Second-Order Moller-Plesset Perturbation Theory in the Condensed Phase:
 An Efficient and Massively Parallel Gaussian and Plane Waves Approach.
 https://doi.org/10.1021/ct300531w

 VandeVondele, J; Hutter, J. 
 JOURNAL OF CHEMICAL PHYSICS, 127 (11), 114105 (2007). 
 Gaussian basis sets for accurate calculations on molecular systems in
 gas and condensed phases.
 https://doi.org/10.1063/1.2770708

 Krack, M. 
 THEORETICAL CHEMISTRY ACCOUNTS, 114 (1-3), 145-152 (2005). 
 Pseudopotentials for H to Kr optimized for gradient-corrected
 exchange-correlation functionals.
 https://doi.org/10.1007/s00214-005-0655-y

 VandeVondele, J; Krack, M; Mohamed, F; Parrinello, M; Chassaing, T;
 Hutter, J. COMPUTER PHYSICS COMMUNICATIONS, 167 (2), 103-128 (2005). 
 QUICKSTEP: Fast and accurate density functional calculations using a
 mixed Gaussian and plane waves approach.
 https://doi.org/10.1016/j.cpc.2004.12.014

 Frigo, M; Johnson, SG. 
 PROCEEDINGS OF THE IEEE, 93 (2), 216-231 (2005). 
 The design and implementation of FFTW3.
 https://doi.org/10.1109/JPROC.2004.840301

 Hartwigsen, C; Goedecker, S; Hutter, J. 
 PHYSICAL REVIEW B, 58 (7), 3641-3662 (1998). 
 Relativistic separable dual-space Gaussian pseudopotentials from H to Rn.
 https://doi.org/10.1103/PhysRevB.58.3641

 Lippert, G; Hutter, J; Parrinello, M. 
 MOLECULAR PHYSICS, 92 (3), 477-487 (1997). 
 A hybrid Gaussian and plane wave density functional scheme.
 https://doi.org/10.1080/002689797170220

 Goedecker, S; Teter, M; Hutter, J. 
 PHYSICAL REVIEW B, 54 (3), 1703-1710 (1996). 
 Separable dual-space Gaussian pseudopotentials.
 https://doi.org/10.1103/PhysRevB.54.1703


 -------------------------------------------------------------------------------
 -                                                                             -
 -                                T I M I N G                                  -
 -                                                                             -
 -------------------------------------------------------------------------------
 SUBROUTINE                       CALLS  ASD         SELF TIME        TOTAL TIME
                                MAXIMUM       AVERAGE  MAXIMUM  AVERAGE  MAXIMUM
 CP2K                                 1  1.0     0.08     0.09 14759.68 14759.85
 qs_energies                          1  2.0     0.01     0.01 14758.59 14758.80
 mp2_main                             1  3.0     0.00     0.00 14718.01 14718.22
 mp2_gpw_main                         1  4.0     0.01     0.02 14712.29 14712.50
 rpa_ri_compute_en                    1  5.0     0.00     0.00 13569.63 13569.83
 rpa_num_int                          1  6.0     0.00     0.00 13071.21 13071.42
 dbt_total                         1907  9.8     0.01     0.02  6758.28  6758.35
 dbt_contract                       765 11.0     0.09     0.12  6208.92  6209.31
 dbt_tas_total                     1206 13.4   273.19   309.96  6108.37  6108.44
 dbt_tas_multiply                  1065 12.8     0.00     0.00  6068.87  6068.93
 rpa_num_int_RPA_matrix_operati      10  7.0     0.00     0.00  5483.83  5483.91
 invert_eps_compute_W_and_Erpa_      10  8.0     0.01     0.01  5483.76  5483.83
 compute_QP_energies                  1  7.0     0.00     0.00  5302.62  5302.68
 compute_self_energy_cubic_gw_k       1  8.0     0.12     0.14  5302.46  5302.57
 dbt_tas_dbm                       1065 14.8     0.00     0.00  4812.22  4812.27
 compute_Q_kp_RPA                   260  9.0     0.35     0.42  4348.80  4351.33
 cp_cfm_power                       312  9.7     0.35     0.42  4284.78  4285.33
 cp_cfm_heevd                       441 10.2  4219.38  4221.56  4219.38  4221.56
 dbm_multiply                      1065 16.8  3547.69  4203.52  3547.69  4203.52
 parallel_gemm_cfm                 4194 10.2     0.01     0.02  2556.98  2565.35
 parallel_gemm_cfm_cosma           4194 11.2  2556.96  2565.33  2556.96  2565.33
 contract_to_self_energy            198  9.0     0.00     0.01  2339.76  2341.65
 compute_mat_P_omega                  1  7.0     0.00     0.00  2280.46  2280.57
 compute_mat_P_omega_contract        10  8.0     2.84     3.50  2259.70  2259.75
 tensor_operation_3c_W               99  9.0     0.00     0.00  2215.05  2217.66
 dbt_tas_mm_2                       289 15.0     0.00     0.00  1761.17  1761.19
 mp_sync                           8992 12.5  1424.46  1729.85  1424.46  1729.85
 dbt_tas_mm_3N                      198 16.5     0.00     0.00  1417.47  1621.20
 mp2_ri_gpw_compute_in                1  5.0     0.01     0.02  1142.64  1142.65
 get_2c_integrals                     1  6.0     0.00     0.00  1056.08  1056.09
 compute_Wc_real_space_tau_GW       260  9.0     0.00     0.00   961.30   962.08
 compute_mat_P_omega_calc_P_t        90  9.0     0.00     0.00   920.48   920.49
 inversion_of_M_and_mult_with_c       1  7.0     0.00     0.00   722.18   722.19
 trafo_to_mo_and_kpoints             21  9.0     0.23     0.32   695.71   695.72
 compute_Wc_real_space_tau_GW_3     260 10.0     0.00     0.00   669.85   674.26
 dbt_tas_mm_3T                      396 16.5     0.00     0.00   479.31   567.39
 compute_mat_P_omega_calc_M_occ      90  9.0     2.69     3.29   542.79   542.80
 dbt_tas_mm_1N                      182 15.0     0.00     0.00   390.00   501.49
 mp_waitall_2                      5600 16.7   374.78   498.46   374.78   498.46
 get_bandstruc_and_k_dependent_       1  6.0     0.00     0.00   498.41   498.43
 create_kp_and_calc_kp_orbitals       3  7.0     0.01     0.01   498.41   498.43
 cp_cfm_geeig                       129  8.0     0.01     0.01   489.71   492.13
 dbt_copy                           947 10.8     0.07     0.09   459.60   485.59
 dbt_reshape                        927 11.8   101.99   126.52   455.30   480.29
 compute_mat_P_omega_calc_M_vir      90  9.0     0.00     0.00   466.48   466.48
 dbm_redistribute                  2394 15.8   357.06   378.68   357.06   378.68
 dbt_communicate_buffer             927 12.8     0.32     0.47   329.73   345.85
 compute_V_by_lattice_sum             1  7.0     0.00     0.00   300.62   300.62
 build_2c_coulomb_matrix_kp           2  8.0     0.00     0.00   180.12   299.39
 lattice_sum                          2  9.0     6.62     9.54   180.12   299.39
 compute_v_transl                 13312 10.0   171.68   287.21   173.40   289.71
 compute_Wc_real_space_tau_GW_2     260 10.0     0.11     0.15   276.89   281.84
 cp_cfm_cholesky_invert             260 11.0   270.87   271.29   270.87   271.29
 convert_to_new_pgrid              3195 14.8    19.42    27.60   253.79   263.30
 dbt_tas_replicate                  927 15.0    50.50   109.73   226.77   242.31
 mp_isend_im2                    205005 13.7   117.52   224.74   117.52   224.74
 dbt_tas_communicate_buffer        1953 17.3     0.42     0.82   193.24   217.13
 copy_dbcsr_to_fm                  3838 10.5     0.08     0.11   150.30   189.64
 mp_alltoall_i22                  15277 12.7   133.71   173.73   133.71   173.73
 dbcsr_desymmetrize_deep           3898 11.4     1.42     1.89   130.97   170.24
 mp_sum_l                          6500 14.1   119.59   162.23   119.59   162.23
 dbt_tas_replicate_communicate_     717 16.3     0.12     0.30   136.04   155.47
 cp_cfm_cholesky_decompose          389  9.7   147.73   147.80   147.73   147.80
 -------------------------------------------------------------------------------

 The number of warnings for this run is : 2
 
 -------------------------------------------------------------------------------
  **** **** ******  **  PROGRAM ENDED AT                 2023-03-05 22:01:21.887
 ***** ** ***  *** **   PROGRAM RAN ON                          f0401.nhr.fau.de
 **    ****   ******    PROGRAM RAN BY                                  b165da10
 ***** **    ** ** **   PROGRAM PROCESS ID                                226074
  **** **  *******  **  PROGRAM STOPPED IN /home/atuin/b165da/b165da10/17_MoS2_f
                                           ritz/11x11/1_reg_RI_1e-2
