 DBCSR| CPU Multiplication driver                                           XSMM (U)
 DBCSR| Multrec recursion limit                                              512 (U)
 DBCSR| Multiplication stack size                                           1000 (D)
 DBCSR| Maximum elements for images                                    UNLIMITED (U)
 DBCSR| Multiplicative factor virtual images                                   1 (U)
 DBCSR| Use multiplication densification                                       T (D)
 DBCSR| Multiplication size stacks                                             3 (U)
 DBCSR| Use memory pool for CPU allocation                                     F (U)
 DBCSR| Number of 3D layers                                               SINGLE (U)
 DBCSR| Use MPI memory allocation                                              F (U)
 DBCSR| Use RMA algorithm                                                      F (U)
 DBCSR| Use Communication thread                                               T (U)
 DBCSR| Communication thread load                                             75 (D)
 DBCSR| MPI: My process id                                                     0
 DBCSR| MPI: Number of processes                                            1200
 DBCSR| OMP: Current number of threads                                         4
 DBCSR| OMP: Max number of threads                                             4
 DBCSR| Split modifier for TAS multiplication algorithm                  1.0E+00 (U)


  **** **** ******  **  PROGRAM STARTED AT               2023-05-27 17:48:12.911
 ***** ** ***  *** **   PROGRAM STARTED ON                              n2cn0301
 **    ****   ******    PROGRAM STARTED BY                              eprop2d1
 ***** **    ** ** **   PROGRAM PROCESS ID                               3832895
  **** **  *******  **  PROGRAM STARTED IN /scratch/hpc-prf-eprop2d/eprop2d1_Jan
                                           /02_MoS2_MoSe2_WS2_WSe2/4_WSe2/11x11_
                                           PBE/2_reg_RI_1e-2_TZV2P_big_RI_gap

 CP2K| version string:                 CP2K version 2023.1 (Development Version)
 CP2K| source code revision number:                                  git:a5f008f
 CP2K| cp2kflags: omp libint fftw3 libxc elpa parallel scalapack cosma xsmm plum
 CP2K|            ed2 spglib sirius libvori libbqb libvdwxc
 CP2K| is freely available from                            https://www.cp2k.org/
 CP2K| Program compiled at                         Tue Apr 11 10:47:55 CEST 2023
 CP2K| Program compiled on                                              n2login5
 CP2K| Program compiled for                                                local
 CP2K| Data directory path    /opt/software/pc2/EB-SW/software/CP2K/2023.1-foss-
 CP2K| Input file name                                                    GW.inp

 GLOBAL| Force Environment number                                              1
 GLOBAL| Basis set file name                                        BASIS_MOLOPT
 GLOBAL| Potential file name                                      GTH_POTENTIALS
 GLOBAL| MM Potential file name                                     MM_POTENTIAL
 GLOBAL| Coordinate file name                                      __STD_INPUT__
 GLOBAL| Method name                                                        CP2K
 GLOBAL| Project name                                                       MoS2
 GLOBAL| Run type                                                         ENERGY
 GLOBAL| FFT library                                                       FFTW3
 GLOBAL| Diagonalization library                                            ELPA
 GLOBAL| DGEMM library                                                      BLAS
 GLOBAL| Minimum number of eigenvectors for ELPA usage                        16
 GLOBAL| Orthonormality check for eigenvectors                          DISABLED
 GLOBAL| Matrix multiplication library                                     COSMA
 GLOBAL| All-to-all communication in single precision                          F
 GLOBAL| FFTs using library dependent lengths                                  F
 GLOBAL| Grid backend                                                       AUTO
 GLOBAL| Global print level                                               MEDIUM
 GLOBAL| MPI I/O enabled                                                       T
 GLOBAL| Total number of message passing processes                          1200
 GLOBAL| Number of threads for this process                                    4
 GLOBAL| This output is from process                                           0
 GLOBAL| Stack size for threads created by OpenMP (OMP_STACKSIZE)        default
 GLOBAL| CPU model name                          AMD EPYC 7763 64-Core Processor
 GLOBAL| CPUID                                                              1002
 GLOBAL| Compiled for CPUID                                                    0

 *** HINT in environment.F:882 :: The compiler target flags (generic) used ***
 *** to build this binary cannot exploit all extensions of this CPU model  ***
 *** (x86_avx2). Consider compiler target flags as part of FCFLAGS and     ***
 *** CFLAGS (ARCH file).                                                   ***


 MEMORY| system memory details [Kb]
 MEMORY|                        rank 0           min           max       average
 MEMORY| MemTotal            263914152     263914148     263914156     263914150
 MEMORY| MemFree             247917432     233647768     253996080     246648205
 MEMORY| Buffers                270592        101288        350864        261448
 MEMORY| Cached                5893068       3586412      14847076       6048952
 MEMORY| Slab                  4377492       1438936      12970716       5441326
 MEMORY| SReclaimable           307280        182244        620672        285591
 MEMORY| MemLikelyFree       254388372     244992224     258045036     253244198


 *** Fundamental physical constants (SI units) ***

 *** Literature: B. J. Mohr and B. N. Taylor,
 ***             CODATA recommended values of the fundamental physical
 ***             constants: 2006, Web Version 5.1
 ***             http://physics.nist.gov/constants

 Speed of light in vacuum [m/s]                             2.99792458000000E+08
 Magnetic constant or permeability of vacuum [N/A**2]       1.25663706143592E-06
 Electric constant or permittivity of vacuum [F/m]          8.85418781762039E-12
 Planck constant (h) [J*s]                                  6.62606896000000E-34
 Planck constant (h-bar) [J*s]                              1.05457162825177E-34
 Elementary charge [C]                                      1.60217648700000E-19
 Electron mass [kg]                                         9.10938215000000E-31
 Electron g factor [ ]                                     -2.00231930436220E+00
 Proton mass [kg]                                           1.67262163700000E-27
 Fine-structure constant                                    7.29735253760000E-03
 Rydberg constant [1/m]                                     1.09737315685270E+07
 Avogadro constant [1/mol]                                  6.02214179000000E+23
 Boltzmann constant [J/K]                                   1.38065040000000E-23
 Atomic mass unit [kg]                                      1.66053878200000E-27
 Bohr radius [m]                                            5.29177208590000E-11

 *** Conversion factors ***

 [u] -> [a.u.]                                              1.82288848426455E+03
 [Angstrom] -> [Bohr] = [a.u.]                              1.88972613288564E+00
 [a.u.] = [Bohr] -> [Angstrom]                              5.29177208590000E-01
 [a.u.] -> [s]                                              2.41888432650478E-17
 [a.u.] -> [fs]                                             2.41888432650478E-02
 [a.u.] -> [J]                                              4.35974393937059E-18
 [a.u.] -> [N]                                              8.23872205491840E-08
 [a.u.] -> [K]                                              3.15774647902944E+05
 [a.u.] -> [kJ/mol]                                         2.62549961709828E+03
 [a.u.] -> [kcal/mol]                                       6.27509468713739E+02
 [a.u.] -> [Pa]                                             2.94210107994716E+13
 [a.u.] -> [bar]                                            2.94210107994716E+08
 [a.u.] -> [atm]                                            2.90362800883016E+08
 [a.u.] -> [eV]                                             2.72113838565563E+01
 [a.u.] -> [Hz]                                             6.57968392072181E+15
 [a.u.] -> [1/cm] (wave numbers)                            2.19474631370540E+05
 [a.u./Bohr**2] -> [1/cm]                                   5.14048714338585E+03
 

 CELL_TOP| Volume [angstrom^3]:                                     17314.970895
 CELL_TOP| Vector a [angstrom    36.509     0.000     0.000   |a| =    36.509000
 CELL_TOP| Vector b [angstrom   -18.254    31.618     0.000   |b| =    36.509000
 CELL_TOP| Vector c [angstrom     0.000     0.000    15.000   |c| =    15.000000
 CELL_TOP| Angle (b,c), alpha [degree]:                                90.000000
 CELL_TOP| Angle (a,c), beta  [degree]:                                90.000000
 CELL_TOP| Angle (a,b), gamma [degree]:                               120.000000
 CELL_TOP| Numerically orthorhombic:                                          NO
 CELL_TOP| Periodicity                                                        XY

 CELL_UC| Volume [angstrom^3]:                                        143.098933
 CELL_UC| Vector a [angstrom]     3.319     0.000     0.000   |a| =     3.319000
 CELL_UC| Vector b [angstrom]    -1.659     2.874     0.000   |b| =     3.319000
 CELL_UC| Vector c [angstrom]     0.000     0.000    15.000   |c| =    15.000000
 CELL_UC| Angle (b,c), alpha [degree]:                                 90.000000
 CELL_UC| Angle (a,c), beta  [degree]:                                 90.000000
 CELL_UC| Angle (a,b), gamma [degree]:                                120.000000
 CELL_UC| Numerically orthorhombic:                                           NO
 CELL_UC| Periodicity                                                         XY

 GENERATE|  Preliminary Number of Bonds generated:                             0
 GENERATE|  Achieved consistency in connectivity generation.

 CELL| Volume [angstrom^3]:                                         17314.970895
 CELL| Vector a [angstrom]:      36.509     0.000     0.000   |a| =    36.509000
 CELL| Vector b [angstrom]:     -18.254    31.618     0.000   |b| =    36.509000
 CELL| Vector c [angstrom]:       0.000     0.000    15.000   |c| =    15.000000
 CELL| Angle (b,c), alpha [degree]:                                    90.000000
 CELL| Angle (a,c), beta  [degree]:                                    90.000000
 CELL| Angle (a,b), gamma [degree]:                                   120.000000
 CELL| Numerically orthorhombic:                                              NO
 CELL| Periodicity                                                            XY

 CELL_REF| Volume [angstrom^3]:                                     17314.970895
 CELL_REF| Vector a [angstrom    36.509     0.000     0.000   |a| =    36.509000
 CELL_REF| Vector b [angstrom   -18.254    31.618     0.000   |b| =    36.509000
 CELL_REF| Vector c [angstrom     0.000     0.000    15.000   |c| =    15.000000
 CELL_REF| Angle (b,c), alpha [degree]:                                90.000000
 CELL_REF| Angle (a,c), beta  [degree]:                                90.000000
 CELL_REF| Angle (a,b), gamma [degree]:                               120.000000
 CELL_REF| Numerically orthorhombic:                                          NO
 CELL_REF| Periodicity                                                        XY

 *******************************************************************************
 *******************************************************************************
 **                                                                           **
 **     #####                         ##              ##                      **
 **    ##   ##            ##          ##              ##                      **
 **   ##     ##                       ##            ######                    **
 **   ##     ##  ##   ##  ##   #####  ##  ##   ####   ##    #####    #####    **
 **   ##     ##  ##   ##  ##  ##      ## ##   ##      ##   ##   ##  ##   ##   **
 **   ##  ## ##  ##   ##  ##  ##      ####     ###    ##   ######   ######    **
 **    ##  ###   ##   ##  ##  ##      ## ##      ##   ##   ##       ##        **
 **     #######   #####   ##   #####  ##  ##  ####    ##    #####   ##        **
 **           ##                                                    ##        **
 **                                                                           **
 **                                                ... make the atoms dance   **
 **                                                                           **
 **            Copyright (C) by CP2K developers group (2000-2023)             **
 **                      J. Chem. Phys. 152, 194103 (2020)                    **
 **                                                                           **
 *******************************************************************************

 DFT| Spin restricted Kohn-Sham (RKS) calculation                            RKS
 DFT| Multiplicity                                                             1
 DFT| Number of spin states                                                    1
 DFT| Charge                                                                   0
 DFT| Self-interaction correction (SIC)                                       NO
 DFT| Cutoffs: density                                              1.000000E-10
 DFT|          gradient                                             1.000000E-10
 DFT|          tau                                                  1.000000E-10
 DFT|          cutoff_smoothing_range                               0.000000E+00
 DFT| XC density smoothing                                                  NONE
 DFT| XC derivatives                                                          PW

 FUNCTIONAL| PADE:
 FUNCTIONAL| S. Goedecker, M. Teter and J. Hutter, Phys. Rev. B 54, 1703 (1996) 


 QS| Method:                                                                 GPW
 QS| Density plane wave grid type                        NON-SPHERICAL FULLSPACE
 QS| Number of grid levels:                                                    4
 QS| Density cutoff [a.u.]:                                                250.0
 QS| Multi grid cutoff [a.u.]: 1) grid level                               250.0
 QS|                           2) grid level                                83.3
 QS|                           3) grid level                                27.8
 QS|                           4) grid level                                 9.3
 QS| Grid level progression factor:                                          3.0
 QS| Relative density cutoff [a.u.]:                                        50.0
 QS| Interaction thresholds: eps_pgf_orb:                                1.0E-40
 QS|                         eps_filter_matrix:                          0.0E+00
 QS|                         eps_core_charge:                            1.0E-42
 QS|                         eps_rho_gspace:                             1.0E-40
 QS|                         eps_rho_rspace:                             1.0E-40
 QS|                         eps_gvg_rspace:                             1.0E-20
 QS|                         eps_ppl:                                    1.0E-02
 QS|                         eps_ppnl:                                   1.0E-22


 ATOMIC KIND INFORMATION

  1. Atomic kind: W                                     Number of atoms:     121

     Orbital Basis Set                                       TZV2P-MOLOPT-SR-GTH

       Number of orbital shell sets:                                           1
       Number of orbital shells:                                              12
       Number of primitive Cartesian functions:                                6
       Number of Cartesian basis functions:                                   51
       Number of spherical basis functions:                                   42
       Norm type:                                                              2

       Normalised Cartesian orbitals:

                        Set   Shell   Orbital            Exponent    Coefficient

                          1       1    2s                3.103254       0.515452
                                                         2.893835       0.375311
                                                         1.106151      -0.709696
                                                         0.501100      -0.206820
                                                         0.214447       0.029334
                                                         0.074663      -0.017487

                          1       2    3s                3.103254      -0.875938
                                                         2.893835       0.724049
                                                         1.106151       0.004891
                                                         0.501100      -0.102265
                                                         0.214447       0.112240
                                                         0.074663       0.072808

                          1       3    4s                3.103254       1.242271
                                                         2.893835      -0.634091
                                                         1.106151      -0.295874
                                                         0.501100       0.048385
                                                         0.214447      -0.259714
                                                         0.074663       0.168416

                          1       4    5s                3.103254       1.527448
                                                         2.893835      -1.828529
                                                         1.106151       0.428933
                                                         0.501100      -0.354408
                                                         0.214447       0.262525
                                                         0.074663       0.031662

                          1       5    3px               3.103254       7.764877
                                                         2.893835      -6.474970
                                                         1.106151      -0.493909
                                                         0.501100      -0.257407
                                                         0.214447      -0.114658
                                                         0.074663       0.019801
                          1       5    3py               3.103254       7.764877
                                                         2.893835      -6.474970
                                                         1.106151      -0.493909
                                                         0.501100      -0.257407
                                                         0.214447      -0.114658
                                                         0.074663       0.019801
                          1       5    3pz               3.103254       7.764877
                                                         2.893835      -6.474970
                                                         1.106151      -0.493909
                                                         0.501100      -0.257407
                                                         0.214447      -0.114658
                                                         0.074663       0.019801

                          1       6    4px               3.103254      -0.260839
                                                         2.893835       0.341937
                                                         1.106151      -0.318669
                                                         0.501100      -0.024012
                                                         0.214447       0.078848
                                                         0.074663       0.041712
                          1       6    4py               3.103254      -0.260839
                                                         2.893835       0.341937
                                                         1.106151      -0.318669
                                                         0.501100      -0.024012
                                                         0.214447       0.078848
                                                         0.074663       0.041712
                          1       6    4pz               3.103254      -0.260839
                                                         2.893835       0.341937
                                                         1.106151      -0.318669
                                                         0.501100      -0.024012
                                                         0.214447       0.078848
                                                         0.074663       0.041712

                          1       7    5px               3.103254      -1.154222
                                                         2.893835       0.794527
                                                         1.106151       1.639214
                                                         0.501100       0.161364
                                                         0.214447      -0.219372
                                                         0.074663       0.043935
                          1       7    5py               3.103254      -1.154222
                                                         2.893835       0.794527
                                                         1.106151       1.639214
                                                         0.501100       0.161364
                                                         0.214447      -0.219372
                                                         0.074663       0.043935
                          1       7    5pz               3.103254      -1.154222
                                                         2.893835       0.794527
                                                         1.106151       1.639214
                                                         0.501100       0.161364
                                                         0.214447      -0.219372
                                                         0.074663       0.043935

                          1       8    4dx2              3.103254      -0.666177
                                                         2.893835       0.808651
                                                         1.106151       0.592574
                                                         0.501100       0.206731
                                                         0.214447       0.037281
                                                         0.074663       0.002722
                          1       8    4dxy              3.103254      -1.153853
                                                         2.893835       1.400624
                                                         1.106151       1.026368
                                                         0.501100       0.358068
                                                         0.214447       0.064572
                                                         0.074663       0.004715
                          1       8    4dxz              3.103254      -1.153853
                                                         2.893835       1.400624
                                                         1.106151       1.026368
                                                         0.501100       0.358068
                                                         0.214447       0.064572
                                                         0.074663       0.004715
                          1       8    4dy2              3.103254      -0.666177
                                                         2.893835       0.808651
                                                         1.106151       0.592574
                                                         0.501100       0.206731
                                                         0.214447       0.037281
                                                         0.074663       0.002722
                          1       8    4dyz              3.103254      -1.153853
                                                         2.893835       1.400624
                                                         1.106151       1.026368
                                                         0.501100       0.358068
                                                         0.214447       0.064572
                                                         0.074663       0.004715
                          1       8    4dz2              3.103254      -0.666177
                                                         2.893835       0.808651
                                                         1.106151       0.592574
                                                         0.501100       0.206731
                                                         0.214447       0.037281
                                                         0.074663       0.002722

                          1       9    5dx2              3.103254      -0.501640
                                                         2.893835       0.331740
                                                         1.106151      -0.610405
                                                         0.501100      -0.248731
                                                         0.214447       0.071042
                                                         0.074663       0.009968
                          1       9    5dxy              3.103254      -0.868866
                                                         2.893835       0.574590
                                                         1.106151      -1.057253
                                                         0.501100      -0.430814
                                                         0.214447       0.123048
                                                         0.074663       0.017265
                          1       9    5dxz              3.103254      -0.868866
                                                         2.893835       0.574590
                                                         1.106151      -1.057253
                                                         0.501100      -0.430814
                                                         0.214447       0.123048
                                                         0.074663       0.017265
                          1       9    5dy2              3.103254      -0.501640
                                                         2.893835       0.331740
                                                         1.106151      -0.610405
                                                         0.501100      -0.248731
                                                         0.214447       0.071042
                                                         0.074663       0.009968
                          1       9    5dyz              3.103254      -0.868866
                                                         2.893835       0.574590
                                                         1.106151      -1.057253
                                                         0.501100      -0.430814
                                                         0.214447       0.123048
                                                         0.074663       0.017265
                          1       9    5dz2              3.103254      -0.501640
                                                         2.893835       0.331740
                                                         1.106151      -0.610405
                                                         0.501100      -0.248731
                                                         0.214447       0.071042
                                                         0.074663       0.009968

                          1      10    6dx2              3.103254       7.800782
                                                         2.893835      -7.616749
                                                         1.106151       0.397584
                                                         0.501100       0.114170
                                                         0.214447      -0.090180
                                                         0.074663       0.023135
                          1      10    6dxy              3.103254      13.511351
                                                         2.893835     -13.192597
                                                         1.106151       0.688635
                                                         0.501100       0.197748
                                                         0.214447      -0.156196
                                                         0.074663       0.040072
                          1      10    6dxz              3.103254      13.511351
                                                         2.893835     -13.192597
                                                         1.106151       0.688635
                                                         0.501100       0.197748
                                                         0.214447      -0.156196
                                                         0.074663       0.040072
                          1      10    6dy2              3.103254       7.800782
                                                         2.893835      -7.616749
                                                         1.106151       0.397584
                                                         0.501100       0.114170
                                                         0.214447      -0.090180
                                                         0.074663       0.023135
                          1      10    6dyz              3.103254      13.511351
                                                         2.893835     -13.192597
                                                         1.106151       0.688635
                                                         0.501100       0.197748
                                                         0.214447      -0.156196
                                                         0.074663       0.040072
                          1      10    6dz2              3.103254       7.800782
                                                         2.893835      -7.616749
                                                         1.106151       0.397584
                                                         0.501100       0.114170
                                                         0.214447      -0.090180
                                                         0.074663       0.023135

                          1      11    5fx3              3.103254      -1.761716
                                                         2.893835       1.954462
                                                         1.106151      -0.301026
                                                         0.501100      -0.156920
                                                         0.214447      -0.019380
                                                         0.074663      -0.000647
                          1      11    5fx2y             3.103254      -3.939317
                                                         2.893835       4.370309
                                                         1.106151      -0.673114
                                                         0.501100      -0.350883
                                                         0.214447      -0.043334
                                                         0.074663      -0.001448
                          1      11    5fx2z             3.103254      -3.939317
                                                         2.893835       4.370309
                                                         1.106151      -0.673114
                                                         0.501100      -0.350883
                                                         0.214447      -0.043334
                                                         0.074663      -0.001448
                          1      11    5fxy2             3.103254      -3.939317
                                                         2.893835       4.370309
                                                         1.106151      -0.673114
                                                         0.501100      -0.350883
                                                         0.214447      -0.043334
                                                         0.074663      -0.001448
                          1      11    5fxyz             3.103254      -6.823098
                                                         2.893835       7.569597
                                                         1.106151      -1.165867
                                                         0.501100      -0.607748
                                                         0.214447      -0.075057
                                                         0.074663      -0.002508
                          1      11    5fxz2             3.103254      -3.939317
                                                         2.893835       4.370309
                                                         1.106151      -0.673114
                                                         0.501100      -0.350883
                                                         0.214447      -0.043334
                                                         0.074663      -0.001448
                          1      11    5fy3              3.103254      -1.761716
                                                         2.893835       1.954462
                                                         1.106151      -0.301026
                                                         0.501100      -0.156920
                                                         0.214447      -0.019380
                                                         0.074663      -0.000647
                          1      11    5fy2z             3.103254      -3.939317
                                                         2.893835       4.370309
                                                         1.106151      -0.673114
                                                         0.501100      -0.350883
                                                         0.214447      -0.043334
                                                         0.074663      -0.001448
                          1      11    5fyz2             3.103254      -3.939317
                                                         2.893835       4.370309
                                                         1.106151      -0.673114
                                                         0.501100      -0.350883
                                                         0.214447      -0.043334
                                                         0.074663      -0.001448
                          1      11    5fz3              3.103254      -1.761716
                                                         2.893835       1.954462
                                                         1.106151      -0.301026
                                                         0.501100      -0.156920
                                                         0.214447      -0.019380
                                                         0.074663      -0.000647

                          1      12    6fx3              3.103254       3.523652
                                                         2.893835      -3.805052
                                                         1.106151       0.562959
                                                         0.501100       0.125270
                                                         0.214447      -0.021481
                                                         0.074663      -0.002929
                          1      12    6fx2y             3.103254       7.879126
                                                         2.893835      -8.508355
                                                         1.106151       1.258815
                                                         0.501100       0.280112
                                                         0.214447      -0.048033
                                                         0.074663      -0.006549
                          1      12    6fx2z             3.103254       7.879126
                                                         2.893835      -8.508355
                                                         1.106151       1.258815
                                                         0.501100       0.280112
                                                         0.214447      -0.048033
                                                         0.074663      -0.006549
                          1      12    6fxy2             3.103254       7.879126
                                                         2.893835      -8.508355
                                                         1.106151       1.258815
                                                         0.501100       0.280112
                                                         0.214447      -0.048033
                                                         0.074663      -0.006549
                          1      12    6fxyz             3.103254      13.647047
                                                         2.893835     -14.736904
                                                         1.106151       2.180331
                                                         0.501100       0.485168
                                                         0.214447      -0.083196
                                                         0.074663      -0.011342
                          1      12    6fxz2             3.103254       7.879126
                                                         2.893835      -8.508355
                                                         1.106151       1.258815
                                                         0.501100       0.280112
                                                         0.214447      -0.048033
                                                         0.074663      -0.006549
                          1      12    6fy3              3.103254       3.523652
                                                         2.893835      -3.805052
                                                         1.106151       0.562959
                                                         0.501100       0.125270
                                                         0.214447      -0.021481
                                                         0.074663      -0.002929
                          1      12    6fy2z             3.103254       7.879126
                                                         2.893835      -8.508355
                                                         1.106151       1.258815
                                                         0.501100       0.280112
                                                         0.214447      -0.048033
                                                         0.074663      -0.006549
                          1      12    6fyz2             3.103254       7.879126
                                                         2.893835      -8.508355
                                                         1.106151       1.258815
                                                         0.501100       0.280112
                                                         0.214447      -0.048033
                                                         0.074663      -0.006549
                          1      12    6fz3              3.103254       3.523652
                                                         2.893835      -3.805052
                                                         1.106151       0.562959
                                                         0.501100       0.125270
                                                         0.214447      -0.021481
                                                         0.074663      -0.002929

     RI Auxiliary Basis Set                                 def2-SVP-RIFIT-mod-2

       Number of orbital shell sets:                                          20
       Number of orbital shells:                                              20
       Number of primitive Cartesian functions:                               20
       Number of Cartesian basis functions:                                  108
       Number of spherical basis functions:                                   82
       Norm type:                                                              2

       Normalised Cartesian orbitals:

                        Set   Shell   Orbital            Exponent    Coefficient

                          1       1    1s                0.208675       0.220046

                          2       1    1fx3              0.253216       0.066959
                          2       1    1fx2y             0.253216       0.149725
                          2       1    1fx2z             0.253216       0.149725
                          2       1    1fxy2             0.253216       0.149725
                          2       1    1fxyz             0.253216       0.259331
                          2       1    1fxz2             0.253216       0.149725
                          2       1    1fy3              0.253216       0.066959
                          2       1    1fy2z             0.253216       0.149725
                          2       1    1fyz2             0.253216       0.149725
                          2       1    1fz3              0.253216       0.066959

                          3       1    1gx4              0.265033       0.028874
                          3       1    1gx3y             0.265033       0.076394
                          3       1    1gx3z             0.265033       0.076394
                          3       1    1gx2y2            0.265033       0.098624
                          3       1    1gx2yz            0.265033       0.170822
                          3       1    1gx2z2            0.265033       0.098624
                          3       1    1gxy3             0.265033       0.076394
                          3       1    1gxy2z            0.265033       0.170822
                          3       1    1gxyz2            0.265033       0.170822
                          3       1    1gxz3             0.265033       0.076394
                          3       1    1gy4              0.265033       0.028874
                          3       1    1gy3z             0.265033       0.076394
                          3       1    1gy2z2            0.265033       0.098624
                          3       1    1gyz3             0.265033       0.076394
                          3       1    1gz4              0.265033       0.028874

                          4       1    1px               0.269126       0.276302
                          4       1    1py               0.269126       0.276302
                          4       1    1pz               0.269126       0.276302

                          5       1    1dx2              0.304026       0.204882
                          5       1    1dxy              0.304026       0.354866
                          5       1    1dxz              0.304026       0.354866
                          5       1    1dy2              0.304026       0.204882
                          5       1    1dyz              0.304026       0.354866
                          5       1    1dz2              0.304026       0.204882

                          6       1    1s                0.364638       0.334431

                          7       1    1fx3              0.470422       0.269806
                          7       1    1fx2y             0.470422       0.603305
                          7       1    1fx2z             0.470422       0.603305
                          7       1    1fxy2             0.470422       0.603305
                          7       1    1fxyz             0.470422       1.044954
                          7       1    1fxz2             0.470422       0.603305
                          7       1    1fy3              0.470422       0.269806
                          7       1    1fy2z             0.470422       0.603305
                          7       1    1fyz2             0.470422       0.603305
                          7       1    1fz3              0.470422       0.269806

                          8       1    1s                0.648984       0.515330

                          9       1    1dx2              0.719090       0.924230
                          9       1    1dxy              0.719090       1.600814
                          9       1    1dxz              0.719090       1.600814
                          9       1    1dy2              0.719090       0.924230
                          9       1    1dyz              0.719090       1.600814
                          9       1    1dz2              0.719090       0.924230

                         10       1    1gx4              0.914481       0.870294
                         10       1    1gx3y             0.914481       2.302581
                         10       1    1gx3z             0.914481       2.302581
                         10       1    1gx2y2            0.914481       2.972619
                         10       1    1gx2yz            0.914481       5.148727
                         10       1    1gx2z2            0.914481       2.972619
                         10       1    1gxy3             0.914481       2.302581
                         10       1    1gxy2z            0.914481       5.148727
                         10       1    1gxyz2            0.914481       5.148727
                         10       1    1gxz3             0.914481       2.302581
                         10       1    1gy4              0.914481       0.870294
                         10       1    1gy3z             0.914481       2.302581
                         10       1    1gy2z2            0.914481       2.972619
                         10       1    1gyz3             0.914481       2.302581
                         10       1    1gz4              0.914481       0.870294

                         11       1    1px               0.967490       1.367723
                         11       1    1py               0.967490       1.367723
                         11       1    1pz               0.967490       1.367723

                         12       1    1dx2              1.179750       2.198072
                         12       1    1dxy              1.179750       3.807173
                         12       1    1dxz              1.179750       3.807173
                         12       1    1dy2              1.179750       2.198072
                         12       1    1dyz              1.179750       3.807173
                         12       1    1dz2              1.179750       2.198072

                         13       1    1fx3              1.281070       2.570357
                         13       1    1fx2y             1.281070       5.747492
                         13       1    1fx2z             1.281070       5.747492
                         13       1    1fxy2             1.281070       5.747492
                         13       1    1fxyz             1.281070       9.954948
                         13       1    1fxz2             1.281070       5.747492
                         13       1    1fy3              1.281070       2.570357
                         13       1    1fy2z             1.281070       5.747492
                         13       1    1fyz2             1.281070       5.747492
                         13       1    1fz3              1.281070       2.570357

                         14       1    1s                1.466370       0.949714

                         15       1    1px               1.939290       3.262072
                         15       1    1py               1.939290       3.262072
                         15       1    1pz               1.939290       3.262072

                         16       1    1s                2.101910       1.244144

                         17       1    1dx2              2.484170       8.090526
                         17       1    1dxy              2.484170      14.013202
                         17       1    1dxz              2.484170      14.013202
                         17       1    1dy2              2.484170       8.090526
                         17       1    1dyz              2.484170      14.013202
                         17       1    1dz2              2.484170       8.090526

                         18       1    1px               2.934310       5.474224
                         18       1    1py               2.934310       5.474224
                         18       1    1pz               2.934310       5.474224

                         19       1    1s                3.287500       1.740041

                         20       1    1dx2              4.561580      23.434799
                         20       1    1dxy              4.561580      40.590262
                         20       1    1dxz              4.561580      40.590262
                         20       1    1dy2              4.561580      23.434799
                         20       1    1dyz              4.561580      40.590262
                         20       1    1dz2              4.561580      23.434799

       Atomic covalent radius [Angstrom]:                                  1.300

       Atomic van der Waals radius [Angstrom]:                             1.670

     GTH Potential information for                                  GTH-PADE-q14

       Description:                       Goedecker-Teter-Hutter pseudopotential
                                           Goedecker et al., PRB 54, 1703 (1996)
                                          Hartwigsen et al., PRB 58, 3641 (1998)
                                                      Krack, TCA 114, 145 (2005)

       Gaussian exponent of the core charge distribution:               1.714678
       Electronic configuration (s p d ...):                           4   6   4

       Parameters of the local part of the GTH pseudopotential:

                          rloc        C1          C2          C3          C4
                        0.540000    4.800251    0.901544

       Parameters of the non-local part of the GTH pseudopotential:

                   l      r(l)      h(i,j,l)

                   0    0.418570    2.692204    2.332557    0.297239
                                    2.332557   -6.022638   -0.767467
                                    0.297239   -0.767467    1.218316
                   1    0.449555   -0.702084    1.036024
                                    1.036024   -2.451680
                   2    0.399602    1.177436    2.448917
                                    2.448917   -5.553621

  2. Atomic kind: Se                                    Number of atoms:     242

     Orbital Basis Set                                       TZV2P-MOLOPT-SR-GTH

       Number of orbital shell sets:                                           1
       Number of orbital shells:                                               8
       Number of primitive Cartesian functions:                                4
       Number of Cartesian basis functions:                                   24
       Number of spherical basis functions:                                   22
       Norm type:                                                              2

       Normalised Cartesian orbitals:

                        Set   Shell   Orbital            Exponent    Coefficient

                          1       1    2s                1.465689       0.494570
                                                         1.029752      -0.180977
                                                         0.303575      -0.216980
                                                         0.107173      -0.053368

                          1       2    3s                1.465689       0.532885
                                                         1.029752      -0.330782
                                                         0.303575       0.006665
                                                         0.107173       0.129622

                          1       3    4s                1.465689       1.121876
                                                         1.029752      -0.920455
                                                         0.303575       0.570550
                                                         0.107173      -0.176214

                          1       4    3px               1.465689       0.107882
                                                         1.029752      -0.079700
                                                         0.303575      -0.126036
                                                         0.107173      -0.058572
                          1       4    3py               1.465689       0.107882
                                                         1.029752      -0.079700
                                                         0.303575      -0.126036
                                                         0.107173      -0.058572
                          1       4    3pz               1.465689       0.107882
                                                         1.029752      -0.079700
                                                         0.303575      -0.126036
                                                         0.107173      -0.058572

                          1       5    4px               1.465689       1.547982
                                                         1.029752      -1.230554
                                                         0.303575      -0.365142
                                                         0.107173       0.068159
                          1       5    4py               1.465689       1.547982
                                                         1.029752      -1.230554
                                                         0.303575      -0.365142
                                                         0.107173       0.068159
                          1       5    4pz               1.465689       1.547982
                                                         1.029752      -1.230554
                                                         0.303575      -0.365142
                                                         0.107173       0.068159

                          1       6    5px               1.465689       3.733852
                                                         1.029752      -2.632709
                                                         0.303575       0.559576
                                                         0.107173      -0.066707
                          1       6    5py               1.465689       3.733852
                                                         1.029752      -2.632709
                                                         0.303575       0.559576
                                                         0.107173      -0.066707
                          1       6    5pz               1.465689       3.733852
                                                         1.029752      -2.632709
                                                         0.303575       0.559576
                                                         0.107173      -0.066707

                          1       7    4dx2              1.465689       0.307774
                                                         1.029752      -0.370040
                                                         0.303575      -0.112586
                                                         0.107173      -0.015926
                          1       7    4dxy              1.465689       0.533081
                                                         1.029752      -0.640929
                                                         0.303575      -0.195005
                                                         0.107173      -0.027585
                          1       7    4dxz              1.465689       0.533081
                                                         1.029752      -0.640929
                                                         0.303575      -0.195005
                                                         0.107173      -0.027585
                          1       7    4dy2              1.465689       0.307774
                                                         1.029752      -0.370040
                                                         0.303575      -0.112586
                                                         0.107173      -0.015926
                          1       7    4dyz              1.465689       0.533081
                                                         1.029752      -0.640929
                                                         0.303575      -0.195005
                                                         0.107173      -0.027585
                          1       7    4dz2              1.465689       0.307774
                                                         1.029752      -0.370040
                                                         0.303575      -0.112586
                                                         0.107173      -0.015926

                          1       8    5dx2              1.465689      -0.987464
                                                         1.029752       1.348321
                                                         0.303575       0.106974
                                                         0.107173      -0.033181
                          1       8    5dxy              1.465689      -1.710337
                                                         1.029752       2.335360
                                                         0.303575       0.185284
                                                         0.107173      -0.057471
                          1       8    5dxz              1.465689      -1.710337
                                                         1.029752       2.335360
                                                         0.303575       0.185284
                                                         0.107173      -0.057471
                          1       8    5dy2              1.465689      -0.987464
                                                         1.029752       1.348321
                                                         0.303575       0.106974
                                                         0.107173      -0.033181
                          1       8    5dyz              1.465689      -1.710337
                                                         1.029752       2.335360
                                                         0.303575       0.185284
                                                         0.107173      -0.057471
                          1       8    5dz2              1.465689      -0.987464
                                                         1.029752       1.348321
                                                         0.303575       0.106974
                                                         0.107173      -0.033181

     RI Auxiliary Basis Set                               def2-SVP-RIFIT-mod-2-1

       Number of orbital shell sets:                                          16
       Number of orbital shells:                                              16
       Number of primitive Cartesian functions:                               16
       Number of Cartesian basis functions:                                   64
       Number of spherical basis functions:                                   54
       Norm type:                                                              2

       Normalised Cartesian orbitals:

                        Set   Shell   Orbital            Exponent    Coefficient

                          1       1    1s                0.198146       0.211665

                          2       1    1dx2              0.205873       0.103564
                          2       1    1dxy              0.205873       0.179379
                          2       1    1dxz              0.205873       0.179379
                          2       1    1dy2              0.205873       0.103564
                          2       1    1dyz              0.205873       0.179379
                          2       1    1dz2              0.205873       0.103564

                          3       1    1px               0.271607       0.279490
                          3       1    1py               0.271607       0.279490
                          3       1    1pz               0.271607       0.279490

                          4       1    1fx3              0.330155       0.121638
                          4       1    1fx2y             0.330155       0.271990
                          4       1    1fx2z             0.330155       0.271990
                          4       1    1fxy2             0.330155       0.271990
                          4       1    1fxyz             0.330155       0.471101
                          4       1    1fxz2             0.330155       0.271990
                          4       1    1fy3              0.330155       0.121638
                          4       1    1fy2z             0.330155       0.271990
                          4       1    1fyz2             0.330155       0.271990
                          4       1    1fz3              0.330155       0.121638

                          5       1    1s                0.368618       0.337165

                          6       1    1dx2              0.492940       0.477308
                          6       1    1dxy              0.492940       0.826723
                          6       1    1dxz              0.492940       0.826723
                          6       1    1dy2              0.492940       0.477308
                          6       1    1dyz              0.492940       0.826723
                          6       1    1dz2              0.492940       0.477308

                          7       1    1px               0.522961       0.633908
                          7       1    1py               0.522961       0.633908
                          7       1    1pz               0.522961       0.633908

                          8       1    1s                0.572587       0.469128

                          9       1    1dx2              0.761541       1.021817
                          9       1    1dxy              0.761541       1.769839
                          9       1    1dxz              0.761541       1.769839
                          9       1    1dy2              0.761541       1.021817
                          9       1    1dyz              0.761541       1.769839
                          9       1    1dz2              0.761541       1.021817

                         10       1    1px               1.002555       1.429965
                         10       1    1py               1.002555       1.429965
                         10       1    1pz               1.002555       1.429965

                         11       1    1dx2              1.339632       2.745579
                         11       1    1dxy              1.339632       4.755483
                         11       1    1dxz              1.339632       4.755483
                         11       1    1dy2              1.339632       2.745579
                         11       1    1dyz              1.339632       4.755483
                         11       1    1dz2              1.339632       2.745579

                         12       1    1fx3              1.492646       3.625412
                         12       1    1fx2y             1.492646       8.106668
                         12       1    1fx2z             1.492646       8.106668
                         12       1    1fxy2             1.492646       8.106668
                         12       1    1fxyz             1.492646      14.041160
                         12       1    1fxz2             1.492646       8.106668
                         12       1    1fy3              1.492646       3.625412
                         12       1    1fy2z             1.492646       8.106668
                         12       1    1fyz2             1.492646       8.106668
                         12       1    1fz3              1.492646       3.625412

                         13       1    1px               1.705131       2.777392
                         13       1    1py               1.705131       2.777392
                         13       1    1pz               1.705131       2.777392

                         14       1    1s                2.077977       1.233504

                         15       1    1px               3.832640       7.643857
                         15       1    1py               3.832640       7.643857
                         15       1    1pz               3.832640       7.643857

                         16       1    1s                4.797700       2.310388

       Atomic covalent radius [Angstrom]:                                  1.160

       Atomic van der Waals radius [Angstrom]:                             1.900

     GTH Potential information for                                   GTH-PADE-q6

       Description:                       Goedecker-Teter-Hutter pseudopotential
                                           Goedecker et al., PRB 54, 1703 (1996)
                                          Hartwigsen et al., PRB 58, 3641 (1998)
                                                      Krack, TCA 114, 145 (2005)

       Gaussian exponent of the core charge distribution:               1.922338
       Electronic configuration (s p d ...):                               2   4

       Parameters of the local part of the GTH pseudopotential:

                          rloc        C1          C2          C3          C4
                        0.510000

       Parameters of the non-local part of the GTH pseudopotential:

                   l      r(l)      h(i,j,l)

                   0    0.432531    5.145131   -0.794740   -0.334051
                                   -0.794740    2.052009    0.862517
                                   -0.334051    0.862517   -1.369203
                   1    0.472473    2.858806    0.249604
                                    0.249604   -0.590670
                   2    0.613420    0.434829


 MOLECULE KIND INFORMATION


 All atoms are their own molecule, skipping detailed information


 TOTAL NUMBERS AND MAXIMUM NUMBERS

  Total number of            - Atomic kinds:                                   2
                             - Atoms:                                        363
                             - Shell sets:                                   363
                             - Shells:                                      3388
                             - Primitive Cartesian functions:               1694
                             - Cartesian basis functions:                  11979
                             - Spherical basis functions:                  10406

  Maximum angular momentum of- Orbital basis functions:                        3
                             - Local part of the GTH pseudopotential:          2
                             - Non-local part of the GTH pseudopotential:      4


 MODULE QUICKSTEP: ATOMIC COORDINATES IN ANGSTROM

   Atom Kind Element         X             Y             Z       Z(eff)     Mass
      1    1 W    74      0.000000      0.000000      2.179276  14.0000 183.8400
      2    2 Se   34      1.659503      0.958115      3.858553   6.0000  78.9600
      3    2 Se   34      1.659503      0.958115      0.500000   6.0000  78.9600
      4    1 W    74      3.319000      0.000000      2.179276  14.0000 183.8400
      5    2 Se   34      4.978503      0.958115      3.858553   6.0000  78.9600
      6    2 Se   34      4.978503      0.958115      0.500000   6.0000  78.9600
      7    1 W    74      6.638000      0.000000      2.179276  14.0000 183.8400
      8    2 Se   34      8.297503      0.958115      3.858553   6.0000  78.9600
      9    2 Se   34      8.297503      0.958115      0.500000   6.0000  78.9600
     10    1 W    74      9.957000      0.000000      2.179276  14.0000 183.8400
     11    2 Se   34     11.616503      0.958115      3.858553   6.0000  78.9600
     12    2 Se   34     11.616503      0.958115      0.500000   6.0000  78.9600
     13    1 W    74     13.276000      0.000000      2.179276  14.0000 183.8400
     14    2 Se   34     14.935503      0.958115      3.858553   6.0000  78.9600
     15    2 Se   34     14.935503      0.958115      0.500000   6.0000  78.9600
     16    1 W    74     16.595000      0.000000      2.179276  14.0000 183.8400
     17    2 Se   34     18.254503      0.958115      3.858553   6.0000  78.9600
     18    2 Se   34     18.254503      0.958115      0.500000   6.0000  78.9600
     19    1 W    74     19.914000      0.000000      2.179276  14.0000 183.8400
     20    2 Se   34     21.573503      0.958115      3.858553   6.0000  78.9600
     21    2 Se   34     21.573503      0.958115      0.500000   6.0000  78.9600
     22    1 W    74     23.233000      0.000000      2.179276  14.0000 183.8400
     23    2 Se   34     24.892503      0.958115      3.858553   6.0000  78.9600
     24    2 Se   34     24.892503      0.958115      0.500000   6.0000  78.9600
     25    1 W    74     26.552000      0.000000      2.179276  14.0000 183.8400
     26    2 Se   34     28.211503      0.958115      3.858553   6.0000  78.9600
     27    2 Se   34     28.211503      0.958115      0.500000   6.0000  78.9600
     28    1 W    74     29.871000      0.000000      2.179276  14.0000 183.8400
     29    2 Se   34     31.530503      0.958115      3.858553   6.0000  78.9600
     30    2 Se   34     31.530503      0.958115      0.500000   6.0000  78.9600
     31    1 W    74     33.190000      0.000000      2.179276  14.0000 183.8400
     32    2 Se   34     34.849503      0.958115      3.858553   6.0000  78.9600
     33    2 Se   34     34.849503      0.958115      0.500000   6.0000  78.9600
     34    1 W    74     -1.659500      2.874338      2.179276  14.0000 183.8400
     35    2 Se   34      0.000003      3.832453      3.858553   6.0000  78.9600
     36    2 Se   34      0.000003      3.832453      0.500000   6.0000  78.9600
     37    1 W    74      1.659500      2.874338      2.179276  14.0000 183.8400
     38    2 Se   34      3.319003      3.832453      3.858553   6.0000  78.9600
     39    2 Se   34      3.319003      3.832453      0.500000   6.0000  78.9600
     40    1 W    74      4.978500      2.874338      2.179276  14.0000 183.8400
     41    2 Se   34      6.638003      3.832453      3.858553   6.0000  78.9600
     42    2 Se   34      6.638003      3.832453      0.500000   6.0000  78.9600
     43    1 W    74      8.297500      2.874338      2.179276  14.0000 183.8400
     44    2 Se   34      9.957003      3.832453      3.858553   6.0000  78.9600
     45    2 Se   34      9.957003      3.832453      0.500000   6.0000  78.9600
     46    1 W    74     11.616500      2.874338      2.179276  14.0000 183.8400
     47    2 Se   34     13.276003      3.832453      3.858553   6.0000  78.9600
     48    2 Se   34     13.276003      3.832453      0.500000   6.0000  78.9600
     49    1 W    74     14.935500      2.874338      2.179276  14.0000 183.8400
     50    2 Se   34     16.595003      3.832453      3.858553   6.0000  78.9600
     51    2 Se   34     16.595003      3.832453      0.500000   6.0000  78.9600
     52    1 W    74     18.254500      2.874338      2.179276  14.0000 183.8400
     53    2 Se   34     19.914003      3.832453      3.858553   6.0000  78.9600
     54    2 Se   34     19.914003      3.832453      0.500000   6.0000  78.9600
     55    1 W    74     21.573500      2.874338      2.179276  14.0000 183.8400
     56    2 Se   34     23.233003      3.832453      3.858553   6.0000  78.9600
     57    2 Se   34     23.233003      3.832453      0.500000   6.0000  78.9600
     58    1 W    74     24.892500      2.874338      2.179276  14.0000 183.8400
     59    2 Se   34     26.552003      3.832453      3.858553   6.0000  78.9600
     60    2 Se   34     26.552003      3.832453      0.500000   6.0000  78.9600
     61    1 W    74     28.211500      2.874338      2.179276  14.0000 183.8400
     62    2 Se   34     29.871003      3.832453      3.858553   6.0000  78.9600
     63    2 Se   34     29.871003      3.832453      0.500000   6.0000  78.9600
     64    1 W    74     31.530500      2.874338      2.179276  14.0000 183.8400
     65    2 Se   34     33.190003      3.832453      3.858553   6.0000  78.9600
     66    2 Se   34     33.190003      3.832453      0.500000   6.0000  78.9600
     67    1 W    74     -3.319000      5.748677      2.179276  14.0000 183.8400
     68    2 Se   34     -1.659497      6.706791      3.858553   6.0000  78.9600
     69    2 Se   34     -1.659497      6.706791      0.500000   6.0000  78.9600
     70    1 W    74      0.000000      5.748677      2.179276  14.0000 183.8400
     71    2 Se   34      1.659503      6.706791      3.858553   6.0000  78.9600
     72    2 Se   34      1.659503      6.706791      0.500000   6.0000  78.9600
     73    1 W    74      3.319000      5.748677      2.179276  14.0000 183.8400
     74    2 Se   34      4.978503      6.706791      3.858553   6.0000  78.9600
     75    2 Se   34      4.978503      6.706791      0.500000   6.0000  78.9600
     76    1 W    74      6.638000      5.748677      2.179276  14.0000 183.8400
     77    2 Se   34      8.297503      6.706791      3.858553   6.0000  78.9600
     78    2 Se   34      8.297503      6.706791      0.500000   6.0000  78.9600
     79    1 W    74      9.957000      5.748677      2.179276  14.0000 183.8400
     80    2 Se   34     11.616503      6.706791      3.858553   6.0000  78.9600
     81    2 Se   34     11.616503      6.706791      0.500000   6.0000  78.9600
     82    1 W    74     13.276000      5.748677      2.179276  14.0000 183.8400
     83    2 Se   34     14.935503      6.706791      3.858553   6.0000  78.9600
     84    2 Se   34     14.935503      6.706791      0.500000   6.0000  78.9600
     85    1 W    74     16.595000      5.748677      2.179276  14.0000 183.8400
     86    2 Se   34     18.254503      6.706791      3.858553   6.0000  78.9600
     87    2 Se   34     18.254503      6.706791      0.500000   6.0000  78.9600
     88    1 W    74     19.914000      5.748677      2.179276  14.0000 183.8400
     89    2 Se   34     21.573503      6.706791      3.858553   6.0000  78.9600
     90    2 Se   34     21.573503      6.706791      0.500000   6.0000  78.9600
     91    1 W    74     23.233000      5.748677      2.179276  14.0000 183.8400
     92    2 Se   34     24.892503      6.706791      3.858553   6.0000  78.9600
     93    2 Se   34     24.892503      6.706791      0.500000   6.0000  78.9600
     94    1 W    74     26.552000      5.748677      2.179276  14.0000 183.8400
     95    2 Se   34     28.211503      6.706791      3.858553   6.0000  78.9600
     96    2 Se   34     28.211503      6.706791      0.500000   6.0000  78.9600
     97    1 W    74     29.871000      5.748677      2.179276  14.0000 183.8400
     98    2 Se   34     31.530503      6.706791      3.858553   6.0000  78.9600
     99    2 Se   34     31.530503      6.706791      0.500000   6.0000  78.9600
    100    1 W    74     -4.978500      8.623015      2.179276  14.0000 183.8400
    101    2 Se   34     -3.318997      9.581130      3.858553   6.0000  78.9600
    102    2 Se   34     -3.318997      9.581130      0.500000   6.0000  78.9600
    103    1 W    74     -1.659500      8.623015      2.179276  14.0000 183.8400
    104    2 Se   34      0.000003      9.581130      3.858553   6.0000  78.9600
    105    2 Se   34      0.000003      9.581130      0.500000   6.0000  78.9600
    106    1 W    74      1.659500      8.623015      2.179276  14.0000 183.8400
    107    2 Se   34      3.319003      9.581130      3.858553   6.0000  78.9600
    108    2 Se   34      3.319003      9.581130      0.500000   6.0000  78.9600
    109    1 W    74      4.978500      8.623015      2.179276  14.0000 183.8400
    110    2 Se   34      6.638003      9.581130      3.858553   6.0000  78.9600
    111    2 Se   34      6.638003      9.581130      0.500000   6.0000  78.9600
    112    1 W    74      8.297500      8.623015      2.179276  14.0000 183.8400
    113    2 Se   34      9.957003      9.581130      3.858553   6.0000  78.9600
    114    2 Se   34      9.957003      9.581130      0.500000   6.0000  78.9600
    115    1 W    74     11.616500      8.623015      2.179276  14.0000 183.8400
    116    2 Se   34     13.276003      9.581130      3.858553   6.0000  78.9600
    117    2 Se   34     13.276003      9.581130      0.500000   6.0000  78.9600
    118    1 W    74     14.935500      8.623015      2.179276  14.0000 183.8400
    119    2 Se   34     16.595003      9.581130      3.858553   6.0000  78.9600
    120    2 Se   34     16.595003      9.581130      0.500000   6.0000  78.9600
    121    1 W    74     18.254500      8.623015      2.179276  14.0000 183.8400
    122    2 Se   34     19.914003      9.581130      3.858553   6.0000  78.9600
    123    2 Se   34     19.914003      9.581130      0.500000   6.0000  78.9600
    124    1 W    74     21.573500      8.623015      2.179276  14.0000 183.8400
    125    2 Se   34     23.233003      9.581130      3.858553   6.0000  78.9600
    126    2 Se   34     23.233003      9.581130      0.500000   6.0000  78.9600
    127    1 W    74     24.892500      8.623015      2.179276  14.0000 183.8400
    128    2 Se   34     26.552003      9.581130      3.858553   6.0000  78.9600
    129    2 Se   34     26.552003      9.581130      0.500000   6.0000  78.9600
    130    1 W    74     28.211500      8.623015      2.179276  14.0000 183.8400
[...]
 dbt_tas_reserve_blocks_templat     710 15.2     0.01     0.01     2.50     3.31
 rs_pw_transfer_PW2RS_250            85 11.9     0.77     0.93     3.14     3.26
 mp_comm_dup                       2708 18.3     2.61     3.26     2.61     3.26
 write_mo_set_to_restart             83  5.0     0.00     0.02     0.47     3.20
 write_mo_set_low                     5  6.0     0.00     0.01     0.47     3.20
 cp_fm_write_unformatted              5  7.0     0.04     2.76     0.47     3.20
 mp_send_dv                           5  8.0     0.44     3.14     0.44     3.14
 dbcsr_multiply_generic              85  7.9     0.00     0.01     2.54     2.92
 cp_fm_finish_copy_general          675 11.1     2.62     2.75     2.77     2.90
 Gamma_only_inversion_of_M_and_       1  7.0     0.00     0.00     2.80     2.81
 libxsmm_abc_contract             15524  7.0     1.62     2.76     1.62     2.76
 alloc_im_time                        1  7.0     0.00     0.00     2.73     2.74
 yz_to_xz                           252 15.0     0.03     0.05     2.54     2.61
 multiply_cannon                     85  8.9     0.01     0.02     2.20     2.59
 multiply_cannon_loop                85  9.9     0.02     0.02     2.14     2.54
 RI_2c_integral_mat                   3  7.0     0.00     0.00     2.36     2.36
 dbt_pgrid_create_expert            666 12.4     0.00     0.00     1.78     2.25
 dbt_create_matrix                  221  9.9     0.00     0.00     1.71     2.10
 multiply_cannon_multrec           5100 10.9     1.24     2.01     1.24     2.01
 dbt_tas_distribution_new          2698 15.1     1.00     1.01     1.97     1.99
 fft_wrap_pw1pw2_90                 168 11.5     0.06     0.07     1.89     1.99
 dbt_nd_mp_comm                     247 10.8     0.00     0.00     1.52     1.98
 fft_wrap_pw1pw2_30                 168 11.5     0.06     0.06     1.78     1.79
 fft_wrap_pw1pw2_10                 168 11.5     0.06     0.06     1.76     1.78
 dbcsr_set                        33467 11.0     0.02     0.03     1.40     1.68
 rs_pw_transfer_PW2RS_30             84 12.0     0.53     0.59     1.52     1.67
 dbcsr_zero                       33467 12.0     1.38     1.66     1.38     1.66
 rs_pw_transfer_RS2PW_30             84  9.0     0.77     0.88     1.60     1.64
 create_occ_virt_mo_coeffs            1  8.0     1.50     1.64     1.50     1.64
 allocate_matrices_gw_im_time         1  7.0     0.00     0.00     1.57     1.57
 get_tensor_3c_overl_int_gw           1  8.0     1.43     1.52     1.56     1.56
 scf_post_calculation_gpw             1  3.0     0.00     0.00     1.46     1.55
 write_available_results              1  4.0     0.00     0.00     1.46     1.55
 write_mo_free_results                1  5.0     0.00     0.00     1.46     1.55
 multiply_cannon_metrocomm3        5100 10.9     0.01     0.01     0.62     1.48
 dbcsr_finalize                   20536 12.4     0.21     0.39     1.15     1.45
 dbt_copy_nocomm                     11 11.0     0.70     0.87     1.15     1.37
 mp_cart_sub                       7849 12.4     1.32     1.33     1.32     1.33
 mp_sendrecv_dv                  201432 10.0     1.20     1.25     1.20     1.25
 compute_2c_integrals                 1  7.0     0.00     0.00     1.10     1.10
 reorder_mat_L                        2  8.0     0.00     0.00     1.09     1.10
 fft_wrap_pw1pw2_250                419 10.2     0.05     0.06     0.92     1.08
 multiply_cannon_metrocomm1        5100 10.9     0.00     0.00     0.17     1.08
 mp_alltoall_z22v                  1342 13.7     0.83     1.02     0.83     1.02
 fft3d_pb                           419 11.2     0.08     0.11     0.82     0.98
 fill_fm_L_from_L_loc_non_block       1  8.0     0.00     0.00     0.72     0.96
 fill_fm_L_from_L_loc_non_block       1  9.0     0.69     0.93     0.69     0.93
 compute_Wc_real_space_tau_GW_1     260 10.0     0.29     0.45     0.66     0.87
 cp_cfm_scale_and_add_fm           2180  9.9     0.75     0.84     0.75     0.84
 self_consistency_check              83  5.0     0.00     0.00     0.56     0.84
 cp_sm_mix                           83  6.0     0.00     0.01     0.56     0.84
 mp_max_d                            85  6.9     0.55     0.84     0.55     0.84
 dbcsr_merge_all                   7457 13.1     0.10     0.13     0.69     0.83
 density_matrix_from_kp_to_mic       42 10.0     0.19     0.21     0.79     0.82
 dbt_distribution_new_expert        634 11.4     0.01     0.01     0.74     0.77
 dbcsr_filter_anytype              4090 10.7     0.12     0.25     0.49     0.70
 mp_sum_dm                           84  7.0     0.54     0.65     0.54     0.65
 alloc_block_3c                       3  7.0     0.06     0.08     0.60     0.65
 mulliken_population_analysis         1  6.0     0.00     0.00     0.50     0.59
 cp_fm_scale_and_add               2600 11.0     0.45     0.58     0.45     0.58
 rs_pw_transfer_RS2PW_10             84  9.0     0.15     0.16     0.52     0.54
 gspace_mixing                       82  5.0     0.01     0.02     0.54     0.54
 dbt_reserve_blocks_template         11 12.0     0.00     0.00     0.45     0.54
 cp_fm_create                      4688 10.4     0.47     0.53     0.47     0.53
 dbt_split_blocks_generic            50 10.8     0.11     0.15     0.49     0.52
 mp_bcast_i                        3754 16.6     0.11     0.51     0.11     0.51
 rs_pw_transfer_PW2RS_10             84 12.0     0.14     0.16     0.48     0.51
 xz_to_yz                           252 12.0     0.01     0.02     0.46     0.50
 calculate_hirshfeld_normalizat       1  6.0     0.42     0.44     0.48     0.48
 hirshfeld_integration                1  6.0     0.42     0.44     0.48     0.48
 mp_bcast_dm                          2  8.0     0.41     0.47     0.41     0.47
 init_scf_run                         1  3.0     0.00     0.00     0.45     0.45
 rs_grid_zero                       171 12.9     0.43     0.44     0.43     0.44
 cp_fm_upper_to_full                168  8.0     0.32     0.44     0.32     0.44
 mp_sum_d                          1249  5.7     0.27     0.43     0.27     0.43
 compute_vec_Sigma_x_minus_vxc_       1  4.0     0.00     0.00     0.42     0.42
 cp_fm_cholesky_decompose             3  5.7     0.42     0.42     0.42     0.42
 mp_recv_dv                        1625  8.0     0.00     0.42     0.00     0.42
 qs_energies_init_hamiltonians        1  3.0     0.00     0.00     0.41     0.41
 copy_dbcsr_to_fm_bc               3916 11.4     0.35     0.40     0.36     0.41
 cp_fm_triangular_invert              2  6.5     0.41     0.41     0.41     0.41
 tree_to_linear_d                  4164 14.3     0.32     0.40     0.32     0.40
 cp_fm_to_cfm                      2880 10.5     0.32     0.39     0.32     0.39
 scf_env_initial_rho_setup            1  4.0     0.00     0.00     0.38     0.38
 invert_mat                           1  8.0     0.00     0.00     0.35     0.35
 cube_transpose_3                   250 11.3     0.01     0.01     0.26     0.34
 mp_isendrecv_dv                 201432 13.0     0.17     0.34     0.17     0.34
 broyden_mixing                      82  6.0     0.24     0.28     0.31     0.33
 dbt_tas_merge_alltoall             215 14.8     0.00     0.00     0.27     0.33
 cube_transpose_2                   421 12.6     0.01     0.01     0.25     0.33
 cp_fm_set_all                     4371 10.8     0.31     0.33     0.31     0.33
 create_qs_kind_set                   1  2.0     0.00     0.00     0.33     0.33
 read_qs_kind                         2  3.0     0.11     0.12     0.33     0.33
 dbt_tas_reshape_get_coord         1031 16.5     0.20     0.31     0.20     0.31
 dbcsr_reserve_all_blocks          4675 10.6     0.01     0.02     0.26     0.31
 build_2c_integrals                   3  8.0     0.04     0.23     0.28     0.31
 dbcsr_reserve_blocks              4911 11.6     0.25     0.30     0.26     0.30
 cholesky_decomp                      1  8.0     0.00     0.00     0.30     0.30
 dbt_buffer_get_index           2355600 16.8     0.26     0.29     0.26     0.29
 dbt_create_new                     317 10.9     0.01     0.01     0.27     0.28
 qs_env_update_s_mstruct              1  4.0     0.00     0.00     0.23     0.27
 make_m2s                           170  8.9     0.00     0.01     0.25     0.26
 dbcsr_data_copy_aa2               4351 14.2     0.18     0.24     0.18     0.24
 dbt_split_copyback                  25 10.8     0.11     0.14     0.19     0.24
 cube_transpose_4                   169 13.5     0.01     0.01     0.19     0.24
 cube_transpose_1                   502 13.2     0.01     0.01     0.18     0.24
 mp_isend_lm2                    403944 18.5     0.14     0.23     0.14     0.23
 make_images                        170  9.9     0.01     0.02     0.21     0.23
 dbcsr_create_new                 36697 11.6     0.13     0.15     0.20     0.22
 parser_read_line                 66290  4.0     0.01     0.01     0.21     0.21
 dbcsr_add_wm_from_matrix          2765 12.8     0.07     0.18     0.12     0.21
 build_core_hamiltonian_matrix        1  4.0     0.00     0.00     0.18     0.21
 parser_read_line_low                71  5.0     0.00     0.07     0.20     0.20
 broadcast_input_information         71  6.0     0.01     0.01     0.20     0.20
 mp_irecv_dv                     499874 16.6     0.13     0.19     0.13     0.19
 mp_comm_free                     24012 13.9     0.15     0.19     0.15     0.19
 dbt_tas_create_new                3281 15.3     0.17     0.19     0.17     0.19
 build_3c_integrals_put_dbcsr      1302  7.0     0.11     0.18     0.11     0.18
 calculate_rho_core                   1  5.0     0.06     0.06     0.14     0.18
 dbm_scale                         1004 14.9     0.11     0.17     0.11     0.17
 build_core_ppnl                      1  5.0     0.15     0.17     0.15     0.17
 alloc_mat_set                       63 10.0     0.00     0.00     0.14     0.17
 cp_fm_redistribute_start            84  8.0     0.00     0.00     0.08     0.16
 qs_vxc_create                       84  8.0     0.00     0.00     0.11     0.16
 xc_vxc_pw_create                    83  9.0     0.01     0.02     0.11     0.16
 cp_cfm_to_fm                      1589  9.8     0.12     0.16     0.12     0.16
 dbt_create_template               1996 12.0     0.11     0.16     0.11     0.16
 dbcsr_copy                        3959 10.6     0.12     0.15     0.13     0.15
 make_images_data                   170 10.9     0.00     0.00     0.11     0.15
 get_sub_para_kp                      1  8.0     0.00     0.00     0.13     0.14
 mp_bcast_am_src                     71  7.0     0.13     0.14     0.13     0.14
 allocate_blocks_of_v_kp              2 10.0     0.08     0.14     0.08     0.14
 compute_2c_integrals_loop_lm         1  8.0     0.00     0.00     0.09     0.14
 mp2_eri_2c_integrate                 1  9.0     0.02     0.03     0.09     0.14
 multiply_cannon_metrocomm2        4845 10.9     0.01     0.01     0.08     0.13
 frequency_and_kpoint_integrati     260  9.0     0.03     0.04     0.12     0.13
 cp_cfm_to_cfm_columns              129  9.0     0.11     0.13     0.11     0.13
 cp_fm_triangular_multiply            3  5.0     0.13     0.13     0.13     0.13
 dbcsr_fill_wm_from_matrix         2765 13.8     0.04     0.12     0.05     0.13
 mp_isend_dm3                     12852 11.5     0.08     0.12     0.08     0.12
 mp_sum_dm3                         193  8.0     0.12     0.12     0.12     0.12
 cp_fm_release                     4688 10.3     0.01     0.12     0.01     0.12
 mp_bcast_b_src                     169  7.5     0.03     0.12     0.03     0.12
 mp_isend_im2                    184425 13.6     0.08     0.12     0.08     0.12
 make_images_sizes                  170 10.9     0.00     0.00     0.08     0.11
 mp_alltoall_i44                    170 11.9     0.07     0.11     0.07     0.11
 integrate_set_2c                 56628 10.0     0.05     0.08     0.07     0.11
 dbcsr_iterator_start             90818 11.7     0.07     0.07     0.10     0.10
 cp_cfm_scale_and_add               260 12.0     0.08     0.10     0.08     0.10
 create_2c_tensor                    24  8.2     0.02     0.02     0.09     0.09
 qs_create_task_list                  1  5.0     0.00     0.00     0.09     0.09
 generate_qs_task_list                1  6.0     0.00     0.00     0.09     0.09
 dbcsr_destroy                    25815 11.2     0.03     0.03     0.08     0.09
 kpoint_initialize_mos                3  8.0     0.00     0.00     0.07     0.09
 quick_finalize                   11512 13.7     0.03     0.03     0.08     0.09
 distribute_tasks                     1  7.0     0.00     0.00     0.08     0.08
 dbcsr_data_release              248291 13.1     0.07     0.08     0.07     0.08
 mp_bcast_i_src                     284  7.0     0.06     0.08     0.06     0.08
 mp_irecv_lm2                    314236 18.5     0.07     0.08     0.07     0.08
 dbcsr_iterator_stop              90818 11.7     0.06     0.06     0.07     0.08
 mp_allgather_i34                    85  9.9     0.04     0.08     0.04     0.08
 mp_sum_iv                           47  8.0     0.05     0.08     0.05     0.08
 xc_rho_set_and_dset_create          83 10.0     0.00     0.00     0.04     0.08
 get_mat_cell_T_from_mat_gamma       37  9.6     0.04     0.05     0.06     0.07
 dbcsr_sort_data                   3023 13.9     0.05     0.07     0.05     0.07
 xc_functional_eval                  83 11.0     0.04     0.07     0.04     0.07
 mp_sum_i                          1077 15.8     0.06     0.07     0.06     0.07
 dbcsr_sort_indices               31368 13.7     0.06     0.07     0.06     0.07
 pw_scatter_p                       502 12.2     0.04     0.07     0.04     0.07
 dbcsr_work_create                19221 12.7     0.04     0.04     0.06     0.07
 dbcsr_data_new                  126356 13.0     0.06     0.07     0.06     0.07
 dealloc_im_time                      1  7.0     0.00     0.01     0.05     0.06
 dbt_permute_index                 2686 12.8     0.05     0.06     0.06     0.06
 dbt_align_index                   2295 12.0     0.00     0.01     0.06     0.06
 cp_cfm_column_scale                312 10.7     0.06     0.06     0.06     0.06
 ab_contract                     121200  9.9     0.04     0.06     0.04     0.06
 dbcsr_make_index_exist           36697 12.6     0.06     0.06     0.06     0.06
 kpoint_initialize_mo_set             3  8.0     0.01     0.01     0.05     0.05
 mp_maxloc_dv                      1497  1.0     0.05     0.05     0.05     0.05
 mp_irecv_im2                    192836 13.6     0.04     0.05     0.04     0.05
 print_and_update_for_ev_sc          64  8.0     0.00     0.05     0.00     0.05
 copy_fm_to_dbcsr_bc                247  9.7     0.02     0.03     0.04     0.05
 create_local_tasks                   1  8.0     0.00     0.00     0.05     0.05
 mp_alltoall_l11v                     1  9.0     0.05     0.05     0.05     0.05
 get_minimax_grid                     1  7.0     0.00     0.00     0.03     0.05
 mp_cart_get                      23959 15.9     0.01     0.05     0.01     0.05
 qs_init_subsys                       1  2.0     0.00     0.00     0.04     0.04
 transpose_index_local             7532 11.8     0.01     0.01     0.04     0.04
 mp_dims_create                    7664 14.7     0.01     0.04     0.01     0.04
 pw_poisson_solve                    84  8.0     0.00     0.01     0.04     0.04
 qs_env_setup                         1  3.0     0.00     0.00     0.04     0.04
 qs_env_rebuild_pw_env                2  3.5     0.00     0.00     0.04     0.04
 pw_env_rebuild                       1  5.0     0.00     0.00     0.04     0.04
 pw_gather_p                        421 11.6     0.02     0.04     0.02     0.04
 dbcsr_iterator_seek              90818 12.7     0.03     0.04     0.03     0.04
 load_balance_distributed             2  8.0     0.00     0.00     0.03     0.03
 dbcsr_work_destroy_all           19221 13.4     0.02     0.03     0.03     0.03
 mp_irecv_dm3                     12852 11.5     0.02     0.03     0.02     0.03
 mp_bcast_iv                       2900 11.5     0.03     0.03     0.03     0.03
 get_current_loads                   12  9.0     0.00     0.00     0.02     0.03
 optimize_load_list                   2  9.0     0.00     0.00     0.02     0.03
 compute_mat_P_omega_Fourier_tr      10  9.0     0.00     0.00     0.03     0.03
 cp_fm_to_fm_matrix                 290  8.9     0.03     0.03     0.03     0.03
 mp_comm_size                     32366 15.7     0.01     0.03     0.01     0.03
 mp_alltoall_l                       13  9.9     0.02     0.03     0.02     0.03
 compute_load_list                    4  9.0     0.00     0.00     0.02     0.03
 Q_trace_and_add_unit_matrix         10  8.0     0.00     0.00     0.02     0.03
 dbcsr_make_dbcsr_index           28413 13.9     0.03     0.03     0.03     0.03
 pw_integral_ab                      84  9.0     0.02     0.02     0.03     0.03
 pw_grid_setup                        4  6.0     0.00     0.00     0.03     0.03
 pw_grid_setup_internal               4  7.0     0.00     0.00     0.03     0.03
 mp_sum_partial_im                    2 10.0     0.01     0.03     0.01     0.03
 merge_index                       7457 14.1     0.02     0.03     0.02     0.03
 restraint_control                    1  2.0     0.00     0.00     0.02     0.03
 mp_max_l                           310 13.1     0.02     0.03     0.02     0.03
 create_3c_tensor                     6  7.5     0.00     0.01     0.02     0.03
 dbcsr_add_d                        102  9.9     0.00     0.00     0.02     0.02
 dbcsr_add_anytype                  102 10.9     0.01     0.02     0.02     0.02
 dbt_copy_tensor_to_matrix          208 10.0     0.01     0.02     0.02     0.02
 pw_zero                             84  8.0     0.00     0.02     0.00     0.02
 mp_bcast_av                        749  1.0     0.01     0.01     0.02     0.02
 mp_bcast_im                       1350 12.1     0.02     0.02     0.02     0.02
 multiply_cannon_metrocomm4        5015 10.9     0.01     0.01     0.02     0.02
 mp_comm_rank                     32366 15.7     0.01     0.02     0.01     0.02
 build_core_ppl                       1  5.0     0.01     0.02     0.01     0.02
 cp_fm_cleanup_copy_general         675 11.1     0.00     0.00     0.01     0.02
 dbcsr_crop_matrix                  336 10.0     0.00     0.00     0.02     0.02
 set_blocks_to_matrix_v_kp            2 10.0     0.02     0.02     0.02     0.02
 deallocate_blocks_of_v_L             4 10.0     0.01     0.02     0.01     0.02
 dbcsr_dot_sd                       167  8.0     0.01     0.01     0.02     0.02
 evaluate_core_matrix_traces         83  6.0     0.00     0.00     0.02     0.02
 calculate_ptrace_kp                166  7.0     0.00     0.00     0.02     0.02
 dbcsr_copy_submatrix               336 11.0     0.00     0.00     0.01     0.02
 dbcsr_get_data_size_used         18881 13.5     0.01     0.02     0.01     0.02
 dbcsr_make_images_dense            168 10.0     0.00     0.00     0.01     0.02
 buffer_matrices_ensure_size        170  9.9     0.00     0.02     0.00     0.02
 get_l_sq_wghts_cos_tf_t_to_w         1  8.0     0.01     0.02     0.01     0.02
 -------------------------------------------------------------------------------

 The number of warnings for this run is : 3
 
 -------------------------------------------------------------------------------
  **** **** ******  **  PROGRAM ENDED AT                 2023-05-27 21:56:18.162
 ***** ** ***  *** **   PROGRAM RAN ON                                  n2cn0301
 **    ****   ******    PROGRAM RAN BY                                  eprop2d1
 ***** **    ** ** **   PROGRAM PROCESS ID                               3832895
  **** **  *******  **  PROGRAM STOPPED IN /scratch/hpc-prf-eprop2d/eprop2d1_Jan
                                           /02_MoS2_MoSe2_WS2_WSe2/4_WSe2/11x11_
                                           PBE/2_reg_RI_1e-2_TZV2P_big_RI_gap
