 DBCSR| CPU Multiplication driver                                           XSMM (U)
 DBCSR| Multrec recursion limit                                              512 (U)
 DBCSR| Multiplication stack size                                           1000 (D)
 DBCSR| Maximum elements for images                                    UNLIMITED (U)
 DBCSR| Multiplicative factor virtual images                                   1 (U)
 DBCSR| Use multiplication densification                                       T (D)
 DBCSR| Multiplication size stacks                                             3 (U)
 DBCSR| Number of 3D layers                                               SINGLE (U)
 DBCSR| Use RMA algorithm                                                      F (U)
 DBCSR| Use Communication thread                                               T (U)
 DBCSR| Communication thread load                                             87 (D)
 DBCSR| MPI: My process id                                                     0
 DBCSR| MPI: Number of processes                                            1280
 DBCSR| OMP: Current number of threads                                         1
 DBCSR| OMP: Max number of threads                                             1
 DBCSR| Split modifier for TAS multiplication algorithm                  1.0E+00 (U)


  **** **** ******  **  PROGRAM STARTED AT               2023-03-05 10:28:45.342
 ***** ** ***  *** **   PROGRAM STARTED ON                      f0401.nhr.fau.de
 **    ****   ******    PROGRAM STARTED BY                              b165da10
 ***** **    ** ** **   PROGRAM PROCESS ID                                187579
  **** **  *******  **  PROGRAM STARTED IN /home/atuin/b165da/b165da10/17_MoS2_f
                                           ritz/12x12/1_reg_RI_1e-2

 CP2K| version string:                 CP2K version 2023.1 (Development Version)
 CP2K| source code revision number:                                  git:383ec4c
 CP2K| cp2kflags: omp libint fftw3 libxc parallel mpi_f08 scalapack cosma xsmm p
 CP2K|            lumed2 spglib mkl libvdwxc
 CP2K| is freely available from                            https://www.cp2k.org/
 CP2K| Program compiled at                           Fri Feb 3 21:19:19 CET 2023
 CP2K| Program compiled on                                     fritz3.nhr.fau.de
 CP2K| Program compiled for                                                local
 CP2K| Data directory path    /home/atuin/b165da/b165da10/01_CP2K_compilations/0
 CP2K| Input file name                                               GW_WSe2.inp
 
 GLOBAL| Force Environment number                                              1
 GLOBAL| Basis set file name                                        BASIS_MOLOPT
 GLOBAL| Potential file name                                      GTH_POTENTIALS
 GLOBAL| MM Potential file name                                     MM_POTENTIAL
 GLOBAL| Coordinate file name                                      __STD_INPUT__
 GLOBAL| Method name                                                        CP2K
 GLOBAL| Project name                                                       MoS2
 GLOBAL| Run type                                                         ENERGY
 GLOBAL| FFT library                                                       FFTW3
 GLOBAL| Diagonalization library                                       ScaLAPACK
 GLOBAL| DGEMM library                                                      BLAS
 GLOBAL| Orthonormality check for eigenvectors                          DISABLED
 GLOBAL| Matrix multiplication library                                     COSMA
 GLOBAL| All-to-all communication in single precision                          F
 GLOBAL| FFTs using library dependent lengths                                  F
 GLOBAL| Grid backend                                                       AUTO
 GLOBAL| Global print level                                               MEDIUM
 GLOBAL| MPI I/O enabled                                                       T
 GLOBAL| Total number of message passing processes                          1280
 GLOBAL| Number of threads for this process                                    1
 GLOBAL| This output is from process                                           0
 GLOBAL| Stack size for threads created by OpenMP (OMP_STACKSIZE)           500m
 GLOBAL| CPU model name            Intel(R) Xeon(R) Platinum 8360Y CPU @ 2.40GHz
 GLOBAL| CPUID                                                              1003

 MEMORY|                        rank 0           min           max       average
 MEMORY| MemTotal            263795724     263781464     263797860     263795786
 MEMORY| MemFree             255365524     244848748     255365524     251296273
 MEMORY| Buffers                   552           552          2576          1877
 MEMORY| Cached                2791900       2653820       3198956       2837500
 MEMORY| Slab                   544940        544940       9843224       4057005
 MEMORY| SReclaimable            85752         85752        156392        120771
 MEMORY| MemLikelyFree       258243728     247904888     258243728     254256423


 *** Fundamental physical constants (SI units) ***

 *** Literature: B. J. Mohr and B. N. Taylor,
 ***             CODATA recommended values of the fundamental physical
 ***             constants: 2006, Web Version 5.1
 ***             http://physics.nist.gov/constants

 Magnetic constant or permeability of vacuum [N/A**2]       1.25663706143592E-06
 Electric constant or permittivity of vacuum [F/m]          8.85418781762039E-12
 Planck constant (h-bar) [J*s]                              1.05457162825177E-34
 Electron g factor [ ]                                     -2.00231930436220E+00
 Fine-structure constant                                    7.29735253760000E-03
 Rydberg constant [1/m]                                     1.09737315685270E+07
 Bohr radius [m]                                            5.29177208590000E-11

 *** Conversion factors ***

 [u] -> [a.u.]                                              1.82288848426455E+03
 [Angstrom] -> [Bohr] = [a.u.]                              1.88972613288564E+00
 [a.u.] = [Bohr] -> [Angstrom]                              5.29177208590000E-01
 [a.u.] -> [s]                                              2.41888432650478E-17
 [a.u.] -> [fs]                                             2.41888432650478E-02
 [a.u.] -> [J]                                              4.35974393937059E-18
 [a.u.] -> [N]                                              8.23872205491840E-08
 [a.u.] -> [K]                                              3.15774647902944E+05
 [a.u.] -> [kJ/mol]                                         2.62549961709828E+03
 [a.u.] -> [kcal/mol]                                       6.27509468713739E+02
 [a.u.] -> [Pa]                                             2.94210107994716E+13
 [a.u.] -> [bar]                                            2.94210107994716E+08
 [a.u.] -> [atm]                                            2.90362800883016E+08
 [a.u.] -> [eV]                                             2.72113838565563E+01
 [a.u.] -> [Hz]                                             6.57968392072181E+15
 [a.u.] -> [1/cm] (wave numbers)                            2.19474631370540E+05
 [a.u./Bohr**2] -> [1/cm]                                   5.14048714338585E+03
 
 CELL_TOP| Volume [angstrom^3]:                                     18561.176069
 CELL_TOP| Numerically orthorhombic:                                          NO
 CELL_TOP| Periodicity                                                        XY

 CELL_UC| Volume [angstrom^3]:                                        128.897056
 CELL_UC| Vector a [angstrom]     3.150     0.000     0.000   |a| =     3.150000
 CELL_UC| Vector b [angstrom]    -1.575     2.728     0.000   |b| =     3.150000
 CELL_UC| Numerically orthorhombic:                                           NO
 CELL_UC| Periodicity                                                         XY

 CELL| Volume [angstrom^3]:                                         18561.176069
 CELL| Numerically orthorhombic:                                              NO
 CELL| Periodicity                                                            XY

 CELL_REF| Volume [angstrom^3]:                                     18561.176069
 CELL_REF| Numerically orthorhombic:                                          NO
 CELL_REF| Periodicity                                                        XY

 *******************************************************************************
 *******************************************************************************
 **                                                                           **
 **     #####                         ##              ##                      **
 **    ##   ##            ##          ##              ##                      **
 **   ##     ##                       ##            ######                    **
 **   ##     ##  ##   ##  ##   #####  ##  ##   ####   ##    #####    #####    **
 **   ##     ##  ##   ##  ##  ##      ## ##   ##      ##   ##   ##  ##   ##   **
 **   ##  ## ##  ##   ##  ##  ##      ####     ###    ##   ######   ######    **
 **    ##  ###   ##   ##  ##  ##      ## ##      ##   ##   ##       ##        **
 **     #######   #####   ##   #####  ##  ##  ####    ##    #####   ##        **
 **           ##                                                    ##        **
 **                                                                           **
 **                                                ... make the atoms dance   **
 **                                                                           **
 **            Copyright (C) by CP2K developers group (2000-2023)             **
 **                      J. Chem. Phys. 152, 194103 (2020)                    **
 **                                                                           **
 *******************************************************************************
  MB
  MB
 B
 B

 DFT| Spin restricted Kohn-Sham (RKS) calculation                            RKS
 DFT| Multiplicity                                                             1
 DFT| Number of spin states                                                    1
 DFT| Charge                                                                   0
 DFT| Self-interaction correction (SIC)                                       NO
 DFT| XC density smoothing                                                  NONE
 DFT| XC derivatives                                                          PW

 FUNCTIONAL| PADE:
 FUNCTIONAL| S. Goedecker, M. Teter and J. Hutter, Phys. Rev. B 54, 1703 (1996) 


 QS| Method:                                                                 GPW
 QS| Density plane wave grid type                        NON-SPHERICAL FULLSPACE
 QS| Number of grid levels:                                                    4
 QS| Density cutoff [a.u.]:                                                250.0
 QS| Multi grid cutoff [a.u.]: 1) grid level                               250.0
 QS|                           2) grid level                                83.3
 QS|                           3) grid level                                27.8
 QS|                           4) grid level                                 9.3
 QS| Grid level progression factor:                                          3.0
 QS| Relative density cutoff [a.u.]:                                        50.0
 QS| Interaction thresholds: eps_pgf_orb:                                1.0E-40
 QS|                         eps_filter_matrix:                          0.0E+00
 QS|                         eps_core_charge:                            1.0E-42
 QS|                         eps_rho_gspace:                             1.0E-40
 QS|                         eps_rho_rspace:                             1.0E-40
 QS|                         eps_gvg_rspace:                             1.0E-20
 QS|                         eps_ppl:                                    1.0E-02
 QS|                         eps_ppnl:                                   1.0E-22


 ATOMIC KIND INFORMATION

  1. Atomic kind: Mo                                    Number of atoms:     144

     Orbital Basis Set                              TZVP-MOLOPT-SR-GTH_robust_12

       Number of orbital shell sets:                                           1
       Number of orbital shells:                                              11
       Number of primitive Cartesian functions:                                7
       Number of Cartesian basis functions:                                   41
       Number of spherical basis functions:                                   35
       Norm type:                                                              2

       Normalised Cartesian orbitals:

                        Set   Shell   Orbital            Exponent    Coefficient

                          1       1    2s                2.540273      -1.345673
                                                         1.999996       0.727257
                                                         0.894040       0.537681
                                                         0.439257       0.138693
                                                         0.189498       0.017367
                                                         0.110000       0.032945

                          1       2    3s                2.540273       0.114163
                                                         1.999996      -0.250260
                                                         0.894040       0.156531
                                                         0.439257       0.021259
                                                         0.189498      -0.094450
                                                         0.110000       0.527481

                          1       3    4s                2.540273       0.776470
                                                         1.999996      -2.724036
                                                         0.894040       1.964078
                                                         0.439257      -0.908890
                                                         0.189498       0.239910
                                                         0.110000      -1.638373

                          1       4    5s                2.540273       0.193805
                                                         1.999996       0.674775
                                                         0.894040      -0.282582
                                                         0.439257       0.089402
                                                         0.189498      -0.137139
                                                         0.110000      -0.488537

                          1       5    3px               2.540273       3.691791
                                                         1.999996      -3.563133
                                                         0.894040      -0.805476
                                                         0.439257      -0.103576
                                                         0.189498       0.030607
                                                         0.110000       0.070996
                          1       5    3py               2.540273       3.691791
                                                         1.999996      -3.563133
                                                         0.894040      -0.805476
                                                         0.439257      -0.103576
                                                         0.189498       0.030607
                                                         0.110000       0.070996
                          1       5    3pz               2.540273       3.691791
                                                         1.999996      -3.563133
                                                         0.894040      -0.805476
                                                         0.439257      -0.103576
                                                         0.189498       0.030607
                                                         0.110000       0.070996

                          1       6    4px               2.540273       0.129010
                                                         1.999996       0.099026
                                                         0.894040      -0.136173
                                                         0.439257      -0.038137
                                                         0.189498      -0.099149
                                                         0.110000       0.214113
                          1       6    4py               2.540273       0.129010
                                                         1.999996       0.099026
                                                         0.894040      -0.136173
                                                         0.439257      -0.038137
                                                         0.189498      -0.099149
                                                         0.110000       0.214113
                          1       6    4pz               2.540273       0.129010
                                                         1.999996       0.099026
                                                         0.894040      -0.136173
                                                         0.439257      -0.038137
                                                         0.189498      -0.099149
                                                         0.110000       0.214113

                          1       7    5px               2.540273       0.471976
                                                         1.999996       0.044875
                                                         0.894040      -0.003198
                                                         0.439257      -0.397109
                                                         0.189498      -0.027230
                                                         0.110000      -0.427107
                          1       7    5py               2.540273       0.471976
                                                         1.999996       0.044875
                                                         0.894040      -0.003198
                                                         0.439257      -0.397109
                                                         0.189498      -0.027230
                                                         0.110000      -0.427107
                          1       7    5pz               2.540273       0.471976
                                                         1.999996       0.044875
                                                         0.894040      -0.003198
                                                         0.439257      -0.397109
                                                         0.189498      -0.027230
                                                         0.110000      -0.427107

                          1       8    4dx2              2.540273      -1.452114
                                                         1.999996       1.851969
                                                         0.894040       0.336748
                                                         0.439257       0.134418
                                                         0.189498       0.030638
                                                         0.110000      -0.028347
                          1       8    4dxy              2.540273      -2.515135
                                                         1.999996       3.207704
                                                         0.894040       0.583264
                                                         0.439257       0.232819
                                                         0.189498       0.053066
                                                         0.110000      -0.049099
                          1       8    4dxz              2.540273      -2.515135
                                                         1.999996       3.207704
                                                         0.894040       0.583264
                                                         0.439257       0.232819
                                                         0.189498       0.053066
                                                         0.110000      -0.049099
                          1       8    4dy2              2.540273      -1.452114
                                                         1.999996       1.851969
                                                         0.894040       0.336748
                                                         0.439257       0.134418
                                                         0.189498       0.030638
                                                         0.110000      -0.028347
                          1       8    4dyz              2.540273      -2.515135
                                                         1.999996       3.207704
                                                         0.894040       0.583264
                                                         0.439257       0.232819
                                                         0.189498       0.053066
                                                         0.110000      -0.049099
                          1       8    4dz2              2.540273      -1.452114
                                                         1.999996       1.851969
                                                         0.894040       0.336748
                                                         0.439257       0.134418
                                                         0.189498       0.030638
                                                         0.110000      -0.028347

                          1       9    5dx2              2.540273       1.091564
                                                         1.999996      -1.380594
                                                         0.894040      -0.266409
                                                         0.439257      -0.106871
                                                         0.189498       0.052951
                                                         0.110000      -0.123814
                          1       9    5dxy              2.540273       1.890645
                                                         1.999996      -2.391258
                                                         0.894040      -0.461434
                                                         0.439257      -0.185105
                                                         0.189498       0.091714
                                                         0.110000      -0.214453
                          1       9    5dxz              2.540273       1.890645
                                                         1.999996      -2.391258
                                                         0.894040      -0.461434
                                                         0.439257      -0.185105
                                                         0.189498       0.091714
                                                         0.110000      -0.214453
                          1       9    5dy2              2.540273       1.091564
                                                         1.999996      -1.380594
                                                         0.894040      -0.266409
                                                         0.439257      -0.106871
                                                         0.189498       0.052951
                                                         0.110000      -0.123814
                          1       9    5dyz              2.540273       1.890645
                                                         1.999996      -2.391258
                                                         0.894040      -0.461434
                                                         0.439257      -0.185105
                                                         0.189498       0.091714
                                                         0.110000      -0.214453
                          1       9    5dz2              2.540273       1.091564
                                                         1.999996      -1.380594
                                                         0.894040      -0.266409
                                                         0.439257      -0.106871
                                                         0.189498       0.052951
                                                         0.110000      -0.123814

                          1      10    6dx2              2.540273       0.186639
                                                         1.999996       0.227829
                                                         0.894040       1.446911
                                                         0.439257      -0.212124
                                                         0.189498      -0.009110
                                                         0.110000      -0.056981
                          1      10    6dxy              2.540273       0.323269
                                                         1.999996       0.394612
                                                         0.894040       2.506124
                                                         0.439257      -0.367409
                                                         0.189498      -0.015779
                                                         0.110000      -0.098694
                          1      10    6dxz              2.540273       0.323269
                                                         1.999996       0.394612
                                                         0.894040       2.506124
                                                         0.439257      -0.367409
                                                         0.189498      -0.015779
                                                         0.110000      -0.098694
                          1      10    6dy2              2.540273       0.186639
                                                         1.999996       0.227829
                                                         0.894040       1.446911
                                                         0.439257      -0.212124
                                                         0.189498      -0.009110
                                                         0.110000      -0.056981
                          1      10    6dyz              2.540273       0.323269
                                                         1.999996       0.394612
                                                         0.894040       2.506124
                                                         0.439257      -0.367409
                                                         0.189498      -0.015779
                                                         0.110000      -0.098694
                          1      10    6dz2              2.540273       0.186639
                                                         1.999996       0.227829
                                                         0.894040       1.446911
                                                         0.439257      -0.212124
                                                         0.189498      -0.009110
                                                         0.110000      -0.056981

                          1      11    5fx3              2.540273       0.802599
                                                         1.999996      -0.728191
                                                         0.894040      -0.320471
                                                         0.439257      -0.113251
                                                         0.189498      -0.010396
                                                         0.110000       0.004443
                          1      11    5fx2y             2.540273       1.794666
                                                         1.999996      -1.628284
                                                         0.894040      -0.716595
                                                         0.439257      -0.253237
                                                         0.189498      -0.023245
                                                         0.110000       0.009935
                          1      11    5fx2z             2.540273       1.794666
                                                         1.999996      -1.628284
                                                         0.894040      -0.716595
                                                         0.439257      -0.253237
                                                         0.189498      -0.023245
                                                         0.110000       0.009935
                          1      11    5fxy2             2.540273       1.794666
                                                         1.999996      -1.628284
                                                         0.894040      -0.716595
                                                         0.439257      -0.253237
                                                         0.189498      -0.023245
                                                         0.110000       0.009935
                          1      11    5fxyz             2.540273       3.108453
                                                         1.999996      -2.820270
                                                         0.894040      -1.241179
                                                         0.439257      -0.438619
                                                         0.189498      -0.040262
                                                         0.110000       0.017207
                          1      11    5fxz2             2.540273       1.794666
                                                         1.999996      -1.628284
                                                         0.894040      -0.716595
                                                         0.439257      -0.253237
                                                         0.189498      -0.023245
                                                         0.110000       0.009935
                          1      11    5fy3              2.540273       0.802599
                                                         1.999996      -0.728191
                                                         0.894040      -0.320471
                                                         0.439257      -0.113251
                                                         0.189498      -0.010396
                                                         0.110000       0.004443
                          1      11    5fy2z             2.540273       1.794666
                                                         1.999996      -1.628284
                                                         0.894040      -0.716595
                                                         0.439257      -0.253237
                                                         0.189498      -0.023245
                                                         0.110000       0.009935
                          1      11    5fyz2             2.540273       1.794666
                                                         1.999996      -1.628284
                                                         0.894040      -0.716595
                                                         0.439257      -0.253237
                                                         0.189498      -0.023245
                                                         0.110000       0.009935
                          1      11    5fz3              2.540273       0.802599
                                                         1.999996      -0.728191
                                                         0.894040      -0.320471
                                                         0.439257      -0.113251
                                                         0.189498      -0.010396
                                                         0.110000       0.004443

     RI Auxiliary Basis Set                                 def2-SVP-RIFIT-mod-2

       Number of orbital shell sets:                                          17
       Number of orbital shells:                                              17
       Number of primitive Cartesian functions:                               17
       Number of Cartesian basis functions:                                   91
       Number of spherical basis functions:                                   69
       Norm type:                                                              2

       Normalised Cartesian orbitals:

                        Set   Shell   Orbital            Exponent    Coefficient

                          1       1    1s                0.185545       0.201487

                          2       1    1px               0.223731       0.219330
                          2       1    1py               0.223731       0.219330
                          2       1    1pz               0.223731       0.219330

                          3       1    1dx2              0.346956       0.258160
                          3       1    1dxy              0.346956       0.447147
                          3       1    1dxz              0.346956       0.447147
                          3       1    1dy2              0.346956       0.258160
                          3       1    1dyz              0.346956       0.447147
                          3       1    1dz2              0.346956       0.258160

                          4       1    1s                0.360392       0.331506

                          5       1    1fx3              0.410523       0.198593
                          5       1    1fx2y             0.410523       0.444066
                          5       1    1fx2z             0.410523       0.444066
                          5       1    1fxy2             0.410523       0.444066
                          5       1    1fxyz             0.410523       0.769146
                          5       1    1fxz2             0.410523       0.444066
                          5       1    1fy3              0.410523       0.198593
                          5       1    1fy2z             0.410523       0.444066
                          5       1    1fyz2             0.410523       0.444066
                          5       1    1fz3              0.410523       0.198593

                          6       1    1px               0.498778       0.597481
                          6       1    1py               0.498778       0.597481
                          6       1    1pz               0.498778       0.597481

                          7       1    1gx4              0.570000       0.237187
                          7       1    1gx3y             0.570000       0.627538
                          7       1    1gx3z             0.570000       0.627538
                          7       1    1gx2y2            0.570000       0.810149
                          7       1    1gx2yz            0.570000       1.403218
                          7       1    1gx2z2            0.570000       0.810149
                          7       1    1gxy3             0.570000       0.627538
                          7       1    1gxy2z            0.570000       1.403218
                          7       1    1gxyz2            0.570000       1.403218
                          7       1    1gxz3             0.570000       0.627538
                          7       1    1gy4              0.570000       0.237187
                          7       1    1gy3z             0.570000       0.627538
                          7       1    1gy2z2            0.570000       0.810149
                          7       1    1gyz3             0.570000       0.627538
                          7       1    1gz4              0.570000       0.237187

                          8       1    1dx2              0.576698       0.628158
                          8       1    1dxy              0.576698       1.088002
                          8       1    1dxz              0.576698       1.088002
                          8       1    1dy2              0.576698       0.628158
                          8       1    1dyz              0.576698       1.088002
                          8       1    1dz2              0.576698       0.628158

                          9       1    1s                0.619083       0.497418

                         10       1    1s                1.092167       0.761424

                         11       1    1fx3              1.103628       1.837832
                         11       1    1fx2y             1.103628       4.109516
                         11       1    1fx2z             1.103628       4.109516
                         11       1    1fxy2             1.103628       4.109516
                         11       1    1fxyz             1.103628       7.117891
                         11       1    1fxz2             1.103628       4.109516
                         11       1    1fy3              1.103628       1.837832
                         11       1    1fy2z             1.103628       4.109516
                         11       1    1fyz2             1.103628       4.109516
                         11       1    1fz3              1.103628       1.837832

                         12       1    1px               1.390701       2.152694
                         12       1    1py               1.390701       2.152694
                         12       1    1pz               1.390701       2.152694

                         13       1    1dx2              1.439171       3.112475
                         13       1    1dxy              1.439171       5.390965
                         13       1    1dxz              1.439171       5.390965
                         13       1    1dy2              1.439171       3.112475
                         13       1    1dyz              1.439171       5.390965
                         13       1    1dz2              1.439171       3.112475

                         14       1    1gx4              1.615953       4.164995
                         14       1    1gx3y             1.615953      11.019542
                         14       1    1gx3z             1.615953      11.019542
                         14       1    1gx2y2            1.615953      14.226167
                         14       1    1gx2yz            1.615953      24.640444
                         14       1    1gx2z2            1.615953      14.226167
                         14       1    1gxy3             1.615953      11.019542
                         14       1    1gxy2z            1.615953      24.640444
                         14       1    1gxyz2            1.615953      24.640444
                         14       1    1gxz3             1.615953      11.019542
                         14       1    1gy4              1.615953       4.164995
                         14       1    1gy3z             1.615953      11.019542
                         14       1    1gy2z2            1.615953      14.226167
                         14       1    1gyz3             1.615953      11.019542
                         14       1    1gz4              1.615953       4.164995

                         15       1    1px               2.100661       3.604831
                         15       1    1py               2.100661       3.604831
                         15       1    1pz               2.100661       3.604831

                         16       1    1s                2.197983       1.286555

                         17       1    1dx2              2.302596       7.084198
                         17       1    1dxy              2.302596      12.270190
                         17       1    1dxz              2.302596      12.270190
                         17       1    1dy2              2.302596       7.084198
                         17       1    1dyz              2.302596      12.270190
                         17       1    1dz2              2.302596       7.084198

       Atomic covalent radius [Angstrom]:                                  1.300

       Atomic van der Waals radius [Angstrom]:                             1.670

     GTH Potential information for                                  GTH-PADE-q14

       Description:                       Goedecker-Teter-Hutter pseudopotential
                                           Goedecker et al., PRB 54, 1703 (1996)
                                          Hartwigsen et al., PRB 58, 3641 (1998)
                                                      Krack, TCA 114, 145 (2005)

       Gaussian exponent of the core charge distribution:               2.704164
       Electronic configuration (s p d ...):                           3   6   5

       Parameters of the local part of the GTH pseudopotential:

                          rloc        C1          C2          C3          C4
                        0.430000   16.237452    1.496536

       Parameters of the non-local part of the GTH pseudopotential:

                   l      r(l)      h(i,j,l)

                   0    0.376255    3.362426    2.048528
                                    2.048528   -5.289276
                   1    0.361734   -0.379571    1.718923
                                    1.718923   -4.067713
                   2    0.525828   -1.543211   -0.473760
                                   -0.473760    1.074388

  2. Atomic kind: S                                     Number of atoms:     288

     Orbital Basis Set                                  TZVP-MOLOPT-GTH_robust_9

       Number of orbital shell sets:                                           1
       Number of orbital shells:                                               7
       Number of primitive Cartesian functions:                                7
       Number of Cartesian basis functions:                                   18
       Number of spherical basis functions:                                   17
       Norm type:                                                              2

       Normalised Cartesian orbitals:

                        Set   Shell   Orbital            Exponent    Coefficient

                          1       1    2s                3.817591       0.157267
                                                         2.362752      -0.510091
                                                         0.861004      -0.067546
                                                         0.417525       0.341513
                                                         0.181514       0.065074
                                                         0.120000       0.001196
                                                         0.140000      -0.001073

                          1       2    3s                3.817591      -0.191568
                                                         2.362752       0.523701
                                                         0.861004       0.282710
                                                         0.417525      -0.587888
                                                         0.181514       0.178884
                                                         0.120000       0.543819
                                                         0.140000      -0.487887

                          1       3    4s                3.817591      -0.991151
                                                         2.362752       1.865280
                                                         0.861004       0.135387
                                                         0.417525      -0.133451
                                                         0.181514       0.078400
                                                         0.120000      -0.405526
                                                         0.140000       0.363817

                          1       4    3px               3.817591      -0.172566
                                                         2.362752      -0.175790
                                                         0.861004       0.224449
                                                         0.417525       0.286658
                                                         0.181514       0.049751
                                                         0.120000       0.014921
                                                         0.140000      -0.014459
                          1       4    3py               3.817591      -0.172566
                                                         2.362752      -0.175790
                                                         0.861004       0.224449
                                                         0.417525       0.286658
                                                         0.181514       0.049751
                                                         0.120000       0.014921
                                                         0.140000      -0.014459
                          1       4    3pz               3.817591      -0.172566
                                                         2.362752      -0.175790
                                                         0.861004       0.224449
                                                         0.417525       0.286658
                                                         0.181514       0.049751
                                                         0.120000       0.014921
                                                         0.140000      -0.014459

                          1       5    4px               3.817591       0.010507
                                                         2.362752       0.217406
                                                         0.861004      -0.162395
                                                         0.417525      -0.206857
                                                         0.181514       0.107046
                                                         0.120000       0.290385
                                                         0.140000      -0.281393
                          1       5    4py               3.817591       0.010507
                                                         2.362752       0.217406
                                                         0.861004      -0.162395
                                                         0.417525      -0.206857
                                                         0.181514       0.107046
                                                         0.120000       0.290385
                                                         0.140000      -0.281393
                          1       5    4pz               3.817591       0.010507
                                                         2.362752       0.217406
                                                         0.861004      -0.162395
                                                         0.417525      -0.206857
                                                         0.181514       0.107046
                                                         0.120000       0.290385
                                                         0.140000      -0.281393

                          1       6    5px               3.817591      -0.947232
                                                         2.362752       1.731661
                                                         0.861004      -1.484366
                                                         0.417525       0.775915
                                                         0.181514       0.065997
                                                         0.120000      -0.317574
                                                         0.140000       0.307740
                          1       6    5py               3.817591      -0.947232
                                                         2.362752       1.731661
                                                         0.861004      -1.484366
                                                         0.417525       0.775915
                                                         0.181514       0.065997
                                                         0.120000      -0.317574
                                                         0.140000       0.307740
                          1       6    5pz               3.817591      -0.947232
                                                         2.362752       1.731661
                                                         0.861004      -1.484366
                                                         0.417525       0.775915
                                                         0.181514       0.065997
                                                         0.120000      -0.317574
                                                         0.140000       0.307740

                          1       7    4dx2              3.817591       0.133441
                                                         2.362752       0.805146
                                                         0.861004       0.452959
                                                         0.417525       0.174839
                                                         0.181514       0.017641
                                                         0.120000      -0.004028
                                                         0.140000       0.004216
                          1       7    4dxy              3.817591       0.231126
                                                         2.362752       1.394554
                                                         0.861004       0.784547
                                                         0.417525       0.302830
                                                         0.181514       0.030555
                                                         0.120000      -0.006976
                                                         0.140000       0.007302
                          1       7    4dxz              3.817591       0.231126
                                                         2.362752       1.394554
                                                         0.861004       0.784547
                                                         0.417525       0.302830
                                                         0.181514       0.030555
                                                         0.120000      -0.006976
                                                         0.140000       0.007302
                          1       7    4dy2              3.817591       0.133441
                                                         2.362752       0.805146
                                                         0.861004       0.452959
                                                         0.417525       0.174839
                                                         0.181514       0.017641
                                                         0.120000      -0.004028
                                                         0.140000       0.004216
                          1       7    4dyz              3.817591       0.231126
                                                         2.362752       1.394554
                                                         0.861004       0.784547
                                                         0.417525       0.302830
                                                         0.181514       0.030555
                                                         0.120000      -0.006976
                                                         0.140000       0.007302
                          1       7    4dz2              3.817591       0.133441
                                                         2.362752       0.805146
                                                         0.861004       0.452959
                                                         0.417525       0.174839
                                                         0.181514       0.017641
                                                         0.120000      -0.004028
                                                         0.140000       0.004216

     RI Auxiliary Basis Set                                 def2-SVP-RIFIT-mod-1

       Number of orbital shell sets:                                          13
       Number of orbital shells:                                              13
       Number of primitive Cartesian functions:                               13
       Number of Cartesian basis functions:                                   54
       Number of spherical basis functions:                                   45
       Norm type:                                                              2

       Normalised Cartesian orbitals:

                        Set   Shell   Orbital            Exponent    Coefficient

                          1       1    1s                0.197811       0.211396

                          2       1    1dx2              0.242242       0.137672
                          2       1    1dxy              0.242242       0.238455
                          2       1    1dxz              0.242242       0.238455
                          2       1    1dy2              0.242242       0.137672
                          2       1    1dyz              0.242242       0.238455
                          2       1    1dz2              0.242242       0.137672

                          3       1    1px               0.324549       0.349172
                          3       1    1py               0.324549       0.349172
                          3       1    1pz               0.324549       0.349172

                          4       1    1s                0.389135       0.351144

                          5       1    1fx3              0.529340       0.351850
                          5       1    1fx2y             0.529340       0.786760
                          5       1    1fx2z             0.529340       0.786760
                          5       1    1fxy2             0.529340       0.786760
                          5       1    1fxyz             0.529340       1.362708
                          5       1    1fxz2             0.529340       0.786760
                          5       1    1fy3              0.529340       0.351850
                          5       1    1fy2z             0.529340       0.786760
                          5       1    1fyz2             0.529340       0.786760
                          5       1    1fz3              0.529340       0.351850

                          6       1    1dx2              0.603367       0.679871
                          6       1    1dxy              0.603367       1.177572
                          6       1    1dxz              0.603367       1.177572
                          6       1    1dy2              0.603367       0.679871
                          6       1    1dyz              0.603367       1.177572
                          6       1    1dz2              0.603367       0.679871

                          7       1    1px               0.631252       0.802035
                          7       1    1py               0.631252       0.802035
                          7       1    1pz               0.631252       0.802035

                          8       1    1s                0.936032       0.678232

                          9       1    1dx2              1.115385       1.992520
                          9       1    1dxy              1.115385       3.451146
                          9       1    1dxz              1.115385       3.451146
                          9       1    1dy2              1.115385       1.992520
                          9       1    1dyz              1.115385       3.451146
                          9       1    1dz2              1.115385       1.992520

                         10       1    1fx3              1.132321       1.947088
                         10       1    1fx2y             1.132321       4.353822
                         10       1    1fx2z             1.132321       4.353822
                         10       1    1fxy2             1.132321       4.353822
                         10       1    1fxyz             1.132321       7.541040
                         10       1    1fxz2             1.132321       4.353822
                         10       1    1fy3              1.132321       1.947088
                         10       1    1fy2z             1.132321       4.353822
                         10       1    1fyz2             1.132321       4.353822
                         10       1    1fz3              1.132321       1.947088

                         11       1    1px               1.173306       1.740620
                         11       1    1py               1.173306       1.740620
                         11       1    1pz               1.173306       1.740620

                         12       1    1s                2.064006       1.227279

                         13       1    1px               2.625789       4.764474
                         13       1    1py               2.625789       4.764474
                         13       1    1pz               2.625789       4.764474

       Atomic covalent radius [Angstrom]:                                  1.020

       Atomic van der Waals radius [Angstrom]:                             1.800

     GTH Potential information for                                   GTH-PADE-q6

       Description:                       Goedecker-Teter-Hutter pseudopotential
                                           Goedecker et al., PRB 54, 1703 (1996)
                                          Hartwigsen et al., PRB 58, 3641 (1998)
                                                      Krack, TCA 114, 145 (2005)

       Gaussian exponent of the core charge distribution:               2.834467
       Electronic configuration (s p d ...):                               2   4

       Parameters of the local part of the GTH pseudopotential:

                          rloc        C1          C2          C3          C4
                        0.420000   -6.554492

       Parameters of the non-local part of the GTH pseudopotential:

                   l      r(l)      h(i,j,l)

                   0    0.361757    7.905303   -1.731881
                                   -1.731881    4.471698
                   1    0.405285    3.866579


 MOLECULE KIND INFORMATION


 All atoms are their own molecule, skipping detailed information


 TOTAL NUMBERS AND MAXIMUM NUMBERS

  Total number of            - Atomic kinds:                                   2
                             - Atoms:                                        432
                             - Shell sets:                                   432
                             - Shells:                                      3600
                             - Primitive Cartesian functions:               3024
                             - Cartesian basis functions:                  11088
                             - Spherical basis functions:                   9936

  Maximum angular momentum of- Orbital basis functions:                        3
                             - Local part of the GTH pseudopotential:          2
                             - Non-local part of the GTH pseudopotential:      4


 MODULE QUICKSTEP: ATOMIC COORDINATES IN ANGSTROM

   Atom Kind Element         X             Y             Z       Z(eff)     Mass
      4    1 Mo   42      3.150000      1.818650      3.075000  14.0000  95.9600
      5    2 S    16      3.150000      3.637310      1.488300   6.0000  32.0650
      6    2 S    16      3.150000      3.637310      4.661700   6.0000  32.0650
     10    1 Mo   42      9.450000      1.818650      3.075000  14.0000  95.9600
     11    2 S    16      9.450000      3.637310      1.488300   6.0000  32.0650
     12    2 S    16      9.450000      3.637310      4.661700   6.0000  32.0650
     16    1 Mo   42     15.750000      1.818650      3.075000  14.0000  95.9600
     17    2 S    16     15.750000      3.637310      1.488300   6.0000  32.0650
     18    2 S    16     15.750000      3.637310      4.661700   6.0000  32.0650
     22    1 Mo   42     22.050000      1.818650      3.075000  14.0000  95.9600
     23    2 S    16     22.050000      3.637310      1.488300   6.0000  32.0650
     24    2 S    16     22.050000      3.637310      4.661700   6.0000  32.0650
     28    1 Mo   42     28.350000      1.818650      3.075000  14.0000  95.9600
     29    2 S    16     28.350000      3.637310      1.488300   6.0000  32.0650
     30    2 S    16     28.350000      3.637310      4.661700   6.0000  32.0650
     34    1 Mo   42     34.650000      1.818650      3.075000  14.0000  95.9600
     35    2 S    16     34.650000      3.637310      1.488300   6.0000  32.0650
     36    2 S    16     34.650000      3.637310      4.661700   6.0000  32.0650
     37    1 Mo   42     -1.575000      4.546630      3.075000  14.0000  95.9600
     38    2 S    16     -1.575000      6.365290      1.488300   6.0000  32.0650
     39    2 S    16     -1.575000      6.365290      4.661700   6.0000  32.0650
     40    1 Mo   42      1.575000      4.546630      3.075000  14.0000  95.9600
     41    2 S    16      1.575000      6.365290      1.488300   6.0000  32.0650
     42    2 S    16      1.575000      6.365290      4.661700   6.0000  32.0650
     43    1 Mo   42      4.725000      4.546630      3.075000  14.0000  95.9600
     44    2 S    16      4.725000      6.365290      1.488300   6.0000  32.0650
     45    2 S    16      4.725000      6.365290      4.661700   6.0000  32.0650
     46    1 Mo   42      7.875000      4.546630      3.075000  14.0000  95.9600
     47    2 S    16      7.875000      6.365290      1.488300   6.0000  32.0650
     48    2 S    16      7.875000      6.365290      4.661700   6.0000  32.0650
     49    1 Mo   42     11.025000      4.546630      3.075000  14.0000  95.9600
     50    2 S    16     11.025000      6.365290      1.488300   6.0000  32.0650
     51    2 S    16     11.025000      6.365290      4.661700   6.0000  32.0650
     52    1 Mo   42     14.175000      4.546630      3.075000  14.0000  95.9600
     53    2 S    16     14.175000      6.365290      1.488300   6.0000  32.0650
     54    2 S    16     14.175000      6.365290      4.661700   6.0000  32.0650
     55    1 Mo   42     17.325000      4.546630      3.075000  14.0000  95.9600
     56    2 S    16     17.325000      6.365290      1.488300   6.0000  32.0650
     57    2 S    16     17.325000      6.365290      4.661700   6.0000  32.0650
     58    1 Mo   42     20.475000      4.546630      3.075000  14.0000  95.9600
     59    2 S    16     20.475000      6.365290      1.488300   6.0000  32.0650
     60    2 S    16     20.475000      6.365290      4.661700   6.0000  32.0650
     61    1 Mo   42     23.625000      4.546630      3.075000  14.0000  95.9600
     62    2 S    16     23.625000      6.365290      1.488300   6.0000  32.0650
     63    2 S    16     23.625000      6.365290      4.661700   6.0000  32.0650
     64    1 Mo   42     26.775000      4.546630      3.075000  14.0000  95.9600
     65    2 S    16     26.775000      6.365290      1.488300   6.0000  32.0650
     66    2 S    16     26.775000      6.365290      4.661700   6.0000  32.0650
     67    1 Mo   42     29.925000      4.546630      3.075000  14.0000  95.9600
     68    2 S    16     29.925000      6.365290      1.488300   6.0000  32.0650
     69    2 S    16     29.925000      6.365290      4.661700   6.0000  32.0650
     70    1 Mo   42     33.075000      4.546630      3.075000  14.0000  95.9600
     71    2 S    16     33.075000      6.365290      1.488300   6.0000  32.0650
     72    2 S    16     33.075000      6.365290      4.661700   6.0000  32.0650
     73    1 Mo   42     -3.150000      7.274610      3.075000  14.0000  95.9600
     74    2 S    16     -3.150000      9.093270      1.488300   6.0000  32.0650
     75    2 S    16     -3.150000      9.093270      4.661700   6.0000  32.0650
     79    1 Mo   42      3.150000      7.274610      3.075000  14.0000  95.9600
     80    2 S    16      3.150000      9.093270      1.488300   6.0000  32.0650
     81    2 S    16      3.150000      9.093270      4.661700   6.0000  32.0650
     85    1 Mo   42      9.450000      7.274610      3.075000  14.0000  95.9600
     86    2 S    16      9.450000      9.093270      1.488300   6.0000  32.0650
     87    2 S    16      9.450000      9.093270      4.661700   6.0000  32.0650
     91    1 Mo   42     15.750000      7.274610      3.075000  14.0000  95.9600
     92    2 S    16     15.750000      9.093270      1.488300   6.0000  32.0650
     93    2 S    16     15.750000      9.093270      4.661700   6.0000  32.0650
     97    1 Mo   42     22.050000      7.274610      3.075000  14.0000  95.9600
     98    2 S    16     22.050000      9.093270      1.488300   6.0000  32.0650
     99    2 S    16     22.050000      9.093270      4.661700   6.0000  32.0650
    103    1 Mo   42     28.350000      7.274610      3.075000  14.0000  95.9600
    104    2 S    16     28.350000      9.093270      1.488300   6.0000  32.0650
    105    2 S    16     28.350000      9.093270      4.661700   6.0000  32.0650
    109    1 Mo   42     -4.725000     10.002590      3.075000  14.0000  95.9600
    110    2 S    16     -4.725000     11.821250      1.488300   6.0000  32.0650
    111    2 S    16     -4.725000     11.821250      4.661700   6.0000  32.0650
    112    1 Mo   42     -1.575000     10.002590      3.075000  14.0000  95.9600
    113    2 S    16     -1.575000     11.821250      1.488300   6.0000  32.0650
    114    2 S    16     -1.575000     11.821250      4.661700   6.0000  32.0650
    115    1 Mo   42      1.575000     10.002590      3.075000  14.0000  95.9600
    116    2 S    16      1.575000     11.821250      1.488300   6.0000  32.0650
    117    2 S    16      1.575000     11.821250      4.661700   6.0000  32.0650
    118    1 Mo   42      4.725000     10.002590      3.075000  14.0000  95.9600
    119    2 S    16      4.725000     11.821250      1.488300   6.0000  32.0650
    120    2 S    16      4.725000     11.821250      4.661700   6.0000  32.0650
    121    1 Mo   42      7.875000     10.002590      3.075000  14.0000  95.9600
    122    2 S    16      7.875000     11.821250      1.488300   6.0000  32.0650
    123    2 S    16      7.875000     11.821250      4.661700   6.0000  32.0650
    124    1 Mo   42     11.025000     10.002590      3.075000  14.0000  95.9600
    125    2 S    16     11.025000     11.821250      1.488300   6.0000  32.0650
    126    2 S    16     11.025000     11.821250      4.661700   6.0000  32.0650
    127    1 Mo   42     14.175000     10.002590      3.075000  14.0000  95.9600
    128    2 S    16     14.175000     11.821250      1.488300   6.0000  32.0650
    129    2 S    16     14.175000     11.821250      4.661700   6.0000  32.0650
    130    1 Mo   42     17.325000     10.002590      3.075000  14.0000  95.9600
    131    2 S    16     17.325000     11.821250      1.488300   6.0000  32.0650
    132    2 S    16     17.325000     11.821250      4.661700   6.0000  32.0650
    133    1 Mo   42     20.475000     10.002590      3.075000  14.0000  95.9600
    134    2 S    16     20.475000     11.821250      1.488300   6.0000  32.0650
    135    2 S    16     20.475000     11.821250      4.661700   6.0000  32.0650
    136    1 Mo   42     23.625000     10.002590      3.075000  14.0000  95.9600
    137    2 S    16     23.625000     11.821250      1.488300   6.0000  32.0650
    138    2 S    16     23.625000     11.821250      4.661700   6.0000  32.0650
    139    1 Mo   42     26.775000     10.002590      3.075000  14.0000  95.9600
    140    2 S    16     26.775000     11.821250      1.488300   6.0000  32.0650
    141    2 S    16     26.775000     11.821250      4.661700   6.0000  32.0650
    142    1 Mo   42     29.925000     10.002590      3.075000  14.0000  95.9600
    143    2 S    16     29.925000     11.821250      1.488300   6.0000  32.0650
    144    2 S    16     29.925000     11.821250      4.661700   6.0000  32.0650
    148    1 Mo   42     -3.150000     12.730570      3.075000  14.0000  95.9600
    149    2 S    16     -3.150000     14.549230      1.488300   6.0000  32.0650
    150    2 S    16     -3.150000     14.549230      4.661700   6.0000  32.0650
    154    1 Mo   42      3.150000     12.730570      3.075000  14.0000  95.9600
    155    2 S    16      3.150000     14.549230      1.488300   6.0000  32.0650
    156    2 S    16      3.150000     14.549230      4.661700   6.0000  32.0650
    160    1 Mo   42      9.450000     12.730570      3.075000  14.0000  95.9600
    161    2 S    16      9.450000     14.549230      1.488300   6.0000  32.0650
    162    2 S    16      9.450000     14.549230      4.661700   6.0000  32.0650
    166    1 Mo   42     15.750000     12.730570      3.075000  14.0000  95.9600
    167    2 S    16     15.750000     14.549230      1.488300   6.0000  32.0650
    168    2 S    16     15.750000     14.549230      4.661700   6.0000  32.0650
    172    1 Mo   42     22.050000     12.730570      3.075000  14.0000  95.9600
    173    2 S    16     22.050000     14.549230      1.488300   6.0000  32.0650
    174    2 S    16     22.050000     14.549230      4.661700   6.0000  32.0650
    178    1 Mo   42     28.350000     12.730570      3.075000  14.0000  95.9600
    179    2 S    16     28.350000     14.549230      1.488300   6.0000  32.0650
    180    2 S    16     28.350000     14.549230      4.661700   6.0000  32.0650
    181    1 Mo   42     -7.875000     15.458550      3.075000  14.0000  95.9600
    182    2 S    16     -7.875000     17.277210      1.488300   6.0000  32.0650
    183    2 S    16     -7.875000     17.277210      4.661700   6.0000  32.0650
    184    1 Mo   42     -4.725000     15.458550      3.075000  14.0000  95.9600
    185    2 S    16     -4.725000     17.277210      1.488300   6.0000  32.0650
    186    2 S    16     -4.725000     17.277210      4.661700   6.0000  32.0650
    187    1 Mo   42     -1.575000     15.458550      3.075000  14.0000  95.9600
    188    2 S    16     -1.575000     17.277210      1.488300   6.0000  32.0650
    189    2 S    16     -1.575000     17.277210      4.661700   6.0000  32.0650
    190    1 Mo   42      1.575000     15.458550      3.075000  14.0000  95.9600
    191    2 S    16      1.575000     17.277210      1.488300   6.0000  32.0650
    192    2 S    16      1.575000     17.277210      4.661700   6.0000  32.0650
    193    1 Mo   42      4.725000     15.458550      3.075000  14.0000  95.9600
    194    2 S    16      4.725000     17.277210      1.488300   6.0000  32.0650
    195    2 S    16      4.725000     17.277210      4.661700   6.0000  32.0650
    196    1 Mo   42      7.875000     15.458550      3.075000  14.0000  95.9600
    197    2 S    16      7.875000     17.277210      1.488300   6.0000  32.0650
    198    2 S    16      7.875000     17.277210      4.661700   6.0000  32.0650
    199    1 Mo   42     11.025000     15.458550      3.075000  14.0000  95.9600
    200    2 S    16     11.025000     17.277210      1.488300   6.0000  32.0650
    201    2 S    16     11.025000     17.277210      4.661700   6.0000  32.0650
    202    1 Mo   42     14.175000     15.458550      3.075000  14.0000  95.9600
    203    2 S    16     14.175000     17.277210      1.488300   6.0000  32.0650
    204    2 S    16     14.175000     17.277210      4.661700   6.0000  32.0650
    205    1 Mo   42     17.325000     15.458550      3.075000  14.0000  95.9600
    206    2 S    16     17.325000     17.277210      1.488300   6.0000  32.0650
    207    2 S    16     17.325000     17.277210      4.661700   6.0000  32.0650
    208    1 Mo   42     20.475000     15.458550      3.075000  14.0000  95.9600
    209    2 S    16     20.475000     17.277210      1.488300   6.0000  32.0650
    210    2 S    16     20.475000     17.277210      4.661700   6.0000  32.0650
    211    1 Mo   42     23.625000     15.458550      3.075000  14.0000  95.9600
    212    2 S    16     23.625000     17.277210      1.488300   6.0000  32.0650
    213    2 S    16     23.625000     17.277210      4.661700   6.0000  32.0650
    214    1 Mo   42     26.775000     15.458550      3.075000  14.0000  95.9600
    215    2 S    16     26.775000     17.277210      1.488300   6.0000  32.0650
    216    2 S    16     26.775000     17.277210      4.661700   6.0000  32.0650
    217    1 Mo   42     -9.450000     18.186530      3.075000  14.0000  95.9600
    218    2 S    16     -9.450000     20.005190      1.488300   6.0000  32.0650
    219    2 S    16     -9.450000     20.005190      4.661700   6.0000  32.0650
    223    1 Mo   42     -3.150000     18.186530      3.075000  14.0000  95.9600
    224    2 S    16     -3.150000     20.005190      1.488300   6.0000  32.0650
    225    2 S    16     -3.150000     20.005190      4.661700   6.0000  32.0650
    229    1 Mo   42      3.150000     18.186530      3.075000  14.0000  95.9600
    230    2 S    16      3.150000     20.005190      1.488300   6.0000  32.0650
    231    2 S    16      3.150000     20.005190      4.661700   6.0000  32.0650
    235    1 Mo   42      9.450000     18.186530      3.075000  14.0000  95.9600
    236    2 S    16      9.450000     20.005190      1.488300   6.0000  32.0650
    237    2 S    16      9.450000     20.005190      4.661700   6.0000  32.0650
    241    1 Mo   42     15.750000     18.186530      3.075000  14.0000  95.9600
    242    2 S    16     15.750000     20.005190      1.488300   6.0000  32.0650
    243    2 S    16     15.750000     20.005190      4.661700   6.0000  32.0650
    247    1 Mo   42     22.050000     18.186530      3.075000  14.0000  95.9600
    248    2 S    16     22.050000     20.005190      1.488300   6.0000  32.0650
    249    2 S    16     22.050000     20.005190      4.661700   6.0000  32.0650
    253    1 Mo   42    -11.025000     20.914510      3.075000  14.0000  95.9600
    254    2 S    16    -11.025000     22.733170      1.488300   6.0000  32.0650
    255    2 S    16    -11.025000     22.733170      4.661700   6.0000  32.0650
    256    1 Mo   42     -7.875000     20.914510      3.075000  14.0000  95.9600
    257    2 S    16     -7.875000     22.733170      1.488300   6.0000  32.0650
    258    2 S    16     -7.875000     22.733170      4.661700   6.0000  32.0650
    259    1 Mo   42     -4.725000     20.914510      3.075000  14.0000  95.9600
    260    2 S    16     -4.725000     22.733170      1.488300   6.0000  32.0650
    261    2 S    16     -4.725000     22.733170      4.661700   6.0000  32.0650
    262    1 Mo   42     -1.575000     20.914510      3.075000  14.0000  95.9600
    263    2 S    16     -1.575000     22.733170      1.488300   6.0000  32.0650
    264    2 S    16     -1.575000     22.733170      4.661700   6.0000  32.0650
    265    1 Mo   42      1.575000     20.914510      3.075000  14.0000  95.9600
    266    2 S    16      1.575000     22.733170      1.488300   6.0000  32.0650
    267    2 S    16      1.575000     22.733170      4.661700   6.0000  32.0650
    268    1 Mo   42      4.725000     20.914510      3.075000  14.0000  95.9600
    269    2 S    16      4.725000     22.733170      1.488300   6.0000  32.0650
    270    2 S    16      4.725000     22.733170      4.661700   6.0000  32.0650
    271    1 Mo   42      7.875000     20.914510      3.075000  14.0000  95.9600
    272    2 S    16      7.875000     22.733170      1.488300   6.0000  32.0650
    273    2 S    16      7.875000     22.733170      4.661700   6.0000  32.0650
    274    1 Mo   42     11.025000     20.914510      3.075000  14.0000  95.9600
    275    2 S    16     11.025000     22.733170      1.488300   6.0000  32.0650
    276    2 S    16     11.025000     22.733170      4.661700   6.0000  32.0650
    277    1 Mo   42     14.175000     20.914510      3.075000  14.0000  95.9600
    278    2 S    16     14.175000     22.733170      1.488300   6.0000  32.0650
    279    2 S    16     14.175000     22.733170      4.661700   6.0000  32.0650
    280    1 Mo   42     17.325000     20.914510      3.075000  14.0000  95.9600
    281    2 S    16     17.325000     22.733170      1.488300   6.0000  32.0650
    282    2 S    16     17.325000     22.733170      4.661700   6.0000  32.0650
    283    1 Mo   42     20.475000     20.914510      3.075000  14.0000  95.9600
    284    2 S    16     20.475000     22.733170      1.488300   6.0000  32.0650
    285    2 S    16     20.475000     22.733170      4.661700   6.0000  32.0650
    286    1 Mo   42     23.625000     20.914510      3.075000  14.0000  95.9600
    287    2 S    16     23.625000     22.733170      1.488300   6.0000  32.0650
    288    2 S    16     23.625000     22.733170      4.661700   6.0000  32.0650
    292    1 Mo   42     -9.450000     23.642490      3.075000  14.0000  95.9600
    293    2 S    16     -9.450000     25.461150      1.488300   6.0000  32.0650
    294    2 S    16     -9.450000     25.461150      4.661700   6.0000  32.0650
    298    1 Mo   42     -3.150000     23.642490      3.075000  14.0000  95.9600
    299    2 S    16     -3.150000     25.461150      1.488300   6.0000  32.0650
    300    2 S    16     -3.150000     25.461150      4.661700   6.0000  32.0650
    304    1 Mo   42      3.150000     23.642490      3.075000  14.0000  95.9600
    305    2 S    16      3.150000     25.461150      1.488300   6.0000  32.0650
    306    2 S    16      3.150000     25.461150      4.661700   6.0000  32.0650
    310    1 Mo   42      9.450000     23.642490      3.075000  14.0000  95.9600
    311    2 S    16      9.450000     25.461150      1.488300   6.0000  32.0650
    312    2 S    16      9.450000     25.461150      4.661700   6.0000  32.0650
    316    1 Mo   42     15.750000     23.642490      3.075000  14.0000  95.9600
    317    2 S    16     15.750000     25.461150      1.488300   6.0000  32.0650
    318    2 S    16     15.750000     25.461150      4.661700   6.0000  32.0650
    322    1 Mo   42     22.050000     23.642490      3.075000  14.0000  95.9600
    323    2 S    16     22.050000     25.461150      1.488300   6.0000  32.0650
    324    2 S    16     22.050000     25.461150      4.661700   6.0000  32.0650
    325    1 Mo   42    -14.175000     26.370470      3.075000  14.0000  95.9600
    326    2 S    16    -14.175000     28.189130      1.488300   6.0000  32.0650
[...]
  1918 ( vir )             1.751          -3.572           4.466           2.644
  1919 ( vir )             1.778          -3.536           4.425           2.667
  1920 ( vir )             1.778          -3.535           4.425           2.668
  1921 ( vir )             1.778          -3.422           4.277           2.633
  1922 ( vir )             1.778          -3.422           4.277           2.634
  1923 ( vir )             1.778          -3.484           4.285           2.580
  1924 ( vir )             1.778          -3.483           4.285           2.580
  1925 ( vir )             1.790          -3.597           4.480           2.672
  1926 ( vir )             1.790          -3.596           4.480           2.673
  1927 ( vir )             1.791          -3.587           4.457           2.661
  1928 ( vir )             1.791          -3.586           4.457           2.662
  1929 ( vir )             1.792          -3.463           4.250           2.579
  1930 ( vir )             1.792          -3.464           4.250           2.578
  1931 ( vir )             1.793          -3.628           4.576           2.742
  1932 ( vir )             1.793          -3.628           4.576           2.741
  1933 ( vir )             1.800          -3.535           4.446           2.710
  1934 ( vir )             1.800          -3.535           4.446           2.710
  1935 ( vir )             1.811          -3.427           4.189           2.573
  1936 ( vir )             1.811          -3.426           4.189           2.574
  1937 ( vir )             1.816          -3.449           4.305           2.672
  1938 ( vir )             1.816          -3.449           4.305           2.672
  1939 ( vir )             1.823          -3.630           4.496           2.689
  1940 ( vir )             1.823          -3.630           4.496           2.689
  1941 ( vir )             1.830          -3.524           4.400           2.707
  1942 ( vir )             1.830          -3.524           4.400           2.706
  1943 ( vir )             1.832          -3.461           4.232           2.603
  1944 ( vir )             1.832          -3.462           4.232           2.602
  1945 ( vir )             1.835          -3.554           4.456           2.737
  1946 ( vir )             1.835          -3.554           4.456           2.737
  1947 ( vir )             1.838          -3.659           4.600           2.779
  1948 ( vir )             1.838          -3.659           4.600           2.778
  1949 ( vir )             1.839          -3.497           4.362           2.705
  1950 ( vir )             1.839          -3.497           4.363           2.704
  1951 ( vir )             1.844          -3.675           4.582           2.751
  1952 ( vir )             1.844          -3.676           4.582           2.750
  1953 ( vir )             1.847          -3.448           4.207           2.606
  1954 ( vir )             1.847          -3.448           4.207           2.607
  1955 ( vir )             1.862          -3.602           4.510           2.770
  1956 ( vir )             1.862          -3.601           4.510           2.771
  1957 ( vir )             1.866          -3.641           4.563           2.788
  1958 ( vir )             1.866          -3.641           4.563           2.788
  1959 ( vir )             1.873          -3.611           4.506           2.768
  1960 ( vir )             1.873          -3.612           4.506           2.767
  1961 ( vir )             1.875          -3.514           4.380           2.741
  1962 ( vir )             1.875          -3.514           4.380           2.741
  1963 ( vir )             1.881          -3.552           4.432           2.761
  1964 ( vir )             1.881          -3.552           4.432           2.761
  1965 ( vir )             1.899          -3.757           4.683           2.825
  1966 ( vir )             1.899          -3.758           4.683           2.824
  1967 ( vir )             1.917          -3.723           4.653           2.847
  1968 ( vir )             1.917          -3.723           4.653           2.847
  1969 ( vir )             1.923          -3.689           4.598           2.831
  1970 ( vir )             1.923          -3.688           4.598           2.832
  1971 ( vir )             1.944          -3.488           4.232           2.688
  1972 ( vir )             1.944          -3.488           4.232           2.688
  1973 ( vir )             1.945          -3.855           4.809           2.899
  1974 ( vir )             1.945          -3.854           4.809           2.899
  1975 ( vir )             1.957          -3.864           4.814           2.907
  1976 ( vir )             1.957          -3.864           4.814           2.908
  1977 ( vir )             1.960          -3.776           4.708           2.892
  1978 ( vir )             1.960          -3.776           4.708           2.892
  1979 ( vir )             1.962          -3.886           4.849           2.925
  1980 ( vir )             1.962          -3.885           4.849           2.926
  1981 ( vir )             1.965          -3.804           4.741           2.902
  1982 ( vir )             1.965          -3.804           4.741           2.902
  1983 ( vir )             1.974          -3.862           4.816           2.928
  1984 ( vir )             1.974          -3.862           4.816           2.928
  1985 ( vir )             1.981          -3.782           4.708           2.907
  1986 ( vir )             1.981          -3.782           4.708           2.907
  1987 ( vir )             1.990          -3.652           4.496           2.834
  1988 ( vir )             1.990          -3.652           4.496           2.833
  1989 ( vir )             1.992          -3.807           4.739           2.924
  1990 ( vir )             1.992          -3.807           4.739           2.924
  1991 ( vir )             2.005          -3.865           4.814           2.953
  1992 ( vir )             2.005          -3.865           4.814           2.953
  1993 ( vir )             2.005          -3.971           4.956           2.989
  1994 ( vir )             2.005          -3.971           4.956           2.990
  1995 ( vir )             2.021          -3.910           4.869           2.981
  1996 ( vir )             2.021          -3.910           4.869           2.980
  1997 ( vir )             2.025          -4.031           5.033           3.026
  1998 ( vir )             2.025          -4.031           5.033           3.027
  1999 ( vir )             2.036          -4.083           5.101           3.054
  2000 ( vir )             2.036          -4.083           5.101           3.054
  2001 ( vir )             2.037          -3.776           4.648           2.910
  2002 ( vir )             2.037          -3.776           4.648           2.909
  2003 ( vir )             2.038          -3.516           4.244           2.765
  2004 ( vir )             2.038          -3.517           4.244           2.765
  2005 ( vir )             2.042          -3.693           4.530           2.880
  2006 ( vir )             2.042          -3.692           4.530           2.880
  2007 ( vir )             2.046          -4.077           5.089           3.059
  2008 ( vir )             2.046          -4.077           5.089           3.059
  2009 ( vir )             2.047          -3.980           4.957           3.024
  2010 ( vir )             2.054          -4.075           5.085           3.064
  2011 ( vir )             2.054          -4.075           5.085           3.064
  2012 ( vir )             2.055          -4.029           5.021           3.048
  2013 ( vir )             2.071          -3.683           4.506           2.894
  2014 ( vir )             2.071          -3.682           4.506           2.894
  2015 ( vir )             2.078          -3.868           4.761           2.971
  2016 ( vir )             2.078          -3.869           4.761           2.971
  2017 ( vir )             2.107          -3.628           4.418           2.897
  2018 ( vir )             2.107          -3.628           4.418           2.897
  2019 ( vir )             2.111          -3.723           4.548           2.936
  2020 ( vir )             2.111          -3.723           4.548           2.935
  2021 ( vir )             2.123          -3.965           4.881           3.039
  2022 ( vir )             2.123          -3.965           4.881           3.039
  2023 ( vir )             2.131          -3.778           4.617           2.970
  2024 ( vir )             2.132          -3.778           4.617           2.970
  2025 ( vir )             2.134          -3.546           4.258           2.845
  2026 ( vir )             2.134          -3.547           4.258           2.845
  2027 ( vir )             2.135          -3.973           4.889           3.052
  2028 ( vir )             2.135          -3.973           4.889           3.052
  2029 ( vir )             2.136          -3.989           4.911           3.058
  2030 ( vir )             2.136          -3.989           4.911           3.058
  2031 ( vir )             2.139          -3.589           4.353           2.903
  2032 ( vir )             2.139          -3.589           4.353           2.903
  2033 ( vir )             2.151          -3.800           4.642           2.992
  2034 ( vir )             2.151          -3.800           4.642           2.992
  2035 ( vir )             2.152          -3.772           4.603           2.983
  2036 ( vir )             2.152          -3.772           4.603           2.983
  2037 ( vir )             2.162          -3.698           4.498           2.962
  2038 ( vir )             2.166          -3.831           4.832           3.167
  2039 ( vir )             2.166          -3.831           4.832           3.167
  2040 ( vir )             2.167          -4.001           4.915           3.081
  2041 ( vir )             2.167          -4.001           4.915           3.081
  2042 ( vir )             2.167          -3.887           4.756           3.036
  2043 ( vir )             2.167          -3.887           4.756           3.036
  2044 ( vir )             2.168          -3.869           4.889           3.189
  2045 ( vir )             2.178          -3.560           4.299           2.917
  2046 ( vir )             2.178          -3.560           4.299           2.917
  2047 ( vir )             2.189          -3.652           4.425           2.962
  2048 ( vir )             2.189          -3.821           4.812           3.180
  2049 ( vir )             2.189          -3.821           4.812           3.179
  2050 ( vir )             2.189          -3.899           4.931           3.221
  2051 ( vir )             2.192          -3.561           4.261           2.892
  2052 ( vir )             2.192          -3.561           4.261           2.891
  2053 ( vir )             2.200          -3.971           4.860           3.089
  2054 ( vir )             2.200          -3.971           4.860           3.089
  2055 ( vir )             2.212          -3.577           4.311           2.946
  2056 ( vir )             2.212          -3.577           4.311           2.946
  2057 ( vir )             2.217          -4.068           4.990           3.139
  2058 ( vir )             2.217          -4.068           4.990           3.139
  2059 ( vir )             2.221          -3.792           4.760           3.190
  2060 ( vir )             2.221          -3.792           4.760           3.189
  2061 ( vir )             2.222          -4.082           5.013           3.154
  2062 ( vir )             2.222          -4.082           5.013           3.154
  2063 ( vir )             2.238          -3.764           4.713           3.187
  2064 ( vir )             2.238          -3.765           4.714           3.186
  2065 ( vir )             2.240          -3.937           4.978           3.281
  2066 ( vir )             2.240          -3.938           4.978           3.280
  2067 ( vir )             2.241          -4.070           4.982           3.154
  2068 ( vir )             2.241          -4.069           4.982           3.154
  2069 ( vir )             2.242          -3.614           4.354           2.983
  2070 ( vir )             2.242          -3.614           4.354           2.983
  2071 ( vir )             2.249          -4.099           5.021           3.171
  2072 ( vir )             2.249          -4.099           5.021           3.171
   
  GW direct gap at current kpoint (eV)                                     2.551
  
   
  SCF valence band maximum (eV)                                           -0.334
  SCF conduction band minimum (eV)                                         1.501
  SCF bandgap (eV)                                                         1.835
   
  GW valence band maximum (eV)                                            -0.090
  GW conduction band minimum (eV)                                          2.366
  GW bandgap (eV)                                                          2.455
 
  Total RI-RPA Time=                                                24468.454500
 
 ENERGY| Total FORCE_EVAL ( QS ) energy [a.u.]:           -12787.761345731534675

 -------------------------------------------------------------------------------
 -                                                                             -
 -                                T I M I N G                                  -
 -                                                                             -
 -------------------------------------------------------------------------------
 SUBROUTINE                       CALLS  ASD         SELF TIME        TOTAL TIME
                                MAXIMUM       AVERAGE  MAXIMUM  AVERAGE  MAXIMUM
 CP2K                                 1  1.0     0.07     0.11 25062.05 25062.27
 qs_energies                          1  2.0     0.01     0.01 25057.51 25057.82
 mp2_main                             1  3.0     0.00     0.01 24475.84 24476.15
 mp2_gpw_main                         1  4.0     0.01     0.03 24468.40 24468.70
 rpa_ri_compute_en                    1  5.0     0.00     0.01 22882.84 22883.12
 rpa_num_int                          1  6.0     0.00     0.01 22217.99 22218.29
 dbt_total                         1907  9.8     0.01     0.11 13052.05 13052.16
 dbt_contract                       765 11.0     0.05     0.36 12347.36 12358.74
 dbt_tas_total                     1206 13.4   350.32   403.28 12208.58 12208.69
 dbt_tas_multiply                  1065 12.8     0.00     0.05 12157.74 12157.84
 compute_QP_energies                  1  7.0     0.00     0.01 10169.17 10169.26
 compute_self_energy_cubic_gw_k       1  8.0     0.14     0.17 10168.81 10169.11
 rpa_num_int_RPA_matrix_operati      10  7.0     0.00     0.00  7958.84  7958.91
 invert_eps_compute_W_and_Erpa_      10  8.0     0.01     0.02  7958.80  7958.87
 dbt_tas_dbm                       1065 14.8     0.00     0.07  7070.04  7070.10
 dbm_multiply                      1065 16.8  5080.90  6154.60  5080.90  6154.60
 compute_Q_kp_RPA                   260  9.0     0.54     0.61  6109.17  6112.17
 cp_cfm_power                       312  9.7     0.49     0.69  5948.98  5950.16
 cp_cfm_heevd                       441 10.2  5690.88  5693.58  5690.88  5693.58
 tensor_operation_3c_W               99  9.0     0.00     0.01  5539.66  5554.22
 compute_mat_P_omega                  1  7.0     0.00     0.01  4083.69  4083.76
 compute_mat_P_omega_contract        10  8.0     3.43     4.25  4052.17  4052.25
 parallel_gemm_cfm                 4194 10.2     0.02     1.06  3883.10  3894.58
 parallel_gemm_cfm_cosma           4194 11.2  3883.08  3894.57  3883.08  3894.57
 dbt_tas_replicate                  927 15.0    86.35  1860.56  2685.41  3689.65
 contract_to_self_energy            198  9.0     0.01     0.07  3534.73  3537.54
 mp_sync                           9762 12.6  2323.73  2831.59  2323.73  2831.59
 dbt_tas_mm_3N                      198 16.5     0.00     0.03  2181.04  2793.84
 dbt_tas_mm_2                       289 15.0     0.00     0.06  2371.55  2371.57
 mp_waitall_2                      5548 16.7  1088.20  2112.05  1088.20  2112.05
 dbt_tas_communicate_buffer        1854 17.3     0.50    23.79   871.75  1876.08
 dbt_tas_replicate_communicate_     717 16.3     0.15     0.28   804.55  1813.43
 mp_alltoall_i                     3712 15.1  1780.73  1811.12  1780.73  1811.12
 dbt_tas_replicate_alltoall         717 16.3     0.00     0.03  1764.40  1781.60
 mp_cart_rank                   ******* 16.3    14.69  1746.97    14.69  1746.97
 compute_Wc_real_space_tau_GW       260  9.0     0.00     0.03  1595.85  1596.99
 mp2_ri_gpw_compute_in                1  5.0     0.01     0.02  1585.53  1585.54
 compute_mat_P_omega_calc_M_occ      90  9.0     3.42     4.36  1538.07  1538.08
 get_2c_integrals                     1  6.0     0.00     0.00  1486.59  1486.61
 convert_to_new_pgrid              3195 14.8  1013.40  1115.83  1327.88  1452.05
 compute_mat_P_omega_calc_P_t        90  9.0     0.00     0.00  1248.51  1248.52
 dbt_tas_estimate_result_nze        300 14.0     6.91    10.66  1230.48  1230.49
 compute_Wc_real_space_tau_GW_3     260 10.0     0.00     0.02  1027.05  1034.03
 trafo_to_mo_and_kpoints             21  9.0     0.27     0.49  1017.49  1017.58
 inversion_of_M_and_mult_with_c       1  7.0     0.00     0.01   998.74   998.76
 compute_mat_P_omega_calc_M_vir      90  9.0     0.00     0.00   864.69   864.70
 dbt_tas_mm_3T                      396 16.5     0.00     0.04   662.83   815.32
 dbm_redistribute                  2394 15.8   480.45   748.07   480.45   748.07
 dbt_tas_mm_1N                      182 15.0     0.00     0.03   553.80   721.55
 get_bandstruc_and_k_dependent_       1  6.0     0.00     0.00   664.84   664.87
 create_kp_and_calc_kp_orbitals       3  7.0     0.01     0.04   664.84   664.86
 cp_cfm_geeig                       129  8.0     0.01     0.10   650.71   653.44
 dbt_copy                           947 10.8     0.08     0.18   578.69   608.89
 dbt_reshape                        927 11.8   141.82   173.74   573.55   602.78
 scf_env_do_scf                       1  3.0     0.00     0.00   573.94   575.02
 scf_env_do_scf_inner_loop           59  4.0     0.00     0.02   573.94   575.02
 compute_Wc_real_space_tau_GW_2     260 10.0     0.16     0.21   404.26   471.21
 compute_V_by_lattice_sum             1  7.0     0.00     0.01   425.24   425.25
 build_2c_coulomb_matrix_kp           2  8.0     0.00     0.00   256.24   423.55
 lattice_sum                          2  9.0    10.12    15.20   256.24   423.55
 dbt_communicate_buffer             927 12.8     0.33    11.98   400.47   422.64
 compute_v_transl                 13312 10.0   242.90   404.71   245.99   409.00
 cp_cfm_cholesky_invert             260 11.0   395.43   396.09   395.43   396.09
 mp_sum_l                          6767 13.9   147.34   275.39   147.34   275.39
 copy_dbcsr_to_fm                  3892 10.4     0.08     0.59   210.20   259.09
 mp_isend_im2                    204477 13.7   146.54   258.23   146.54   258.23
 mp_alltoall_i22                  15491 12.6   203.92   255.20   203.92   255.20
 -------------------------------------------------------------------------------

 The number of warnings for this run is : 3
 
 -------------------------------------------------------------------------------
  **** **** ******  **  PROGRAM ENDED AT                 2023-03-05 17:26:29.179
 ***** ** ***  *** **   PROGRAM RAN ON                          f0401.nhr.fau.de
 **    ****   ******    PROGRAM RAN BY                                  b165da10
 ***** **    ** ** **   PROGRAM PROCESS ID                                187579
  **** **  *******  **  PROGRAM STOPPED IN /home/atuin/b165da/b165da10/17_MoS2_f
                                           ritz/12x12/1_reg_RI_1e-2
