 DBCSR| CPU Multiplication driver                                           XSMM (U)
 DBCSR| Multrec recursion limit                                              512 (U)
 DBCSR| Multiplication stack size                                           1000 (D)
 DBCSR| Maximum elements for images                                    UNLIMITED (U)
 DBCSR| Multiplicative factor virtual images                                   1 (U)
 DBCSR| Use multiplication densification                                       T (D)
 DBCSR| Multiplication size stacks                                             3 (U)
 DBCSR| Use memory pool for CPU allocation                                     F (U)
 DBCSR| Number of 3D layers                                               SINGLE (U)
 DBCSR| Use MPI memory allocation                                              F (U)
 DBCSR| Use RMA algorithm                                                      F (U)
 DBCSR| Use Communication thread                                               T (U)
 DBCSR| Communication thread load                                             75 (D)
 DBCSR| MPI: My process id                                                     0
 DBCSR| MPI: Number of processes                                            1200
 DBCSR| OMP: Current number of threads                                         4
 DBCSR| OMP: Max number of threads                                             4
 DBCSR| Split modifier for TAS multiplication algorithm                  1.0E+00 (U)


  **** **** ******  **  PROGRAM STARTED AT               2023-06-02 18:17:00.508
 ***** ** ***  *** **   PROGRAM STARTED ON                              n2cn0301
 **    ****   ******    PROGRAM STARTED BY                              eprop2d1
 ***** **    ** ** **   PROGRAM PROCESS ID                               2031153
  **** **  *******  **  PROGRAM STARTED IN /scratch/hpc-prf-eprop2d/eprop2d1_Jan
                                           /02_MoS2_MoSe2_WS2_WSe2/4_WSe2/11x11_
                                           PBE/5_reg_RI_1e-2_TZVP_big_RI

 CP2K| version string:                 CP2K version 2023.1 (Development Version)
 CP2K| source code revision number:                                  git:a5f008f
 CP2K| cp2kflags: omp libint fftw3 libxc elpa parallel scalapack cosma xsmm plum
 CP2K|            ed2 spglib sirius libvori libbqb libvdwxc
 CP2K| is freely available from                            https://www.cp2k.org/
 CP2K| Program compiled at                         Tue Apr 11 10:47:55 CEST 2023
 CP2K| Program compiled on                                              n2login5
 CP2K| Program compiled for                                                local
 CP2K| Data directory path    /opt/software/pc2/EB-SW/software/CP2K/2023.1-foss-
 CP2K| Input file name                                                    GW.inp

 GLOBAL| Force Environment number                                              1
 GLOBAL| Basis set file name                                        BASIS_MOLOPT
 GLOBAL| Potential file name                                      GTH_POTENTIALS
 GLOBAL| MM Potential file name                                     MM_POTENTIAL
 GLOBAL| Coordinate file name                                      __STD_INPUT__
 GLOBAL| Method name                                                        CP2K
 GLOBAL| Project name                                                       MoS2
 GLOBAL| Run type                                                         ENERGY
 GLOBAL| FFT library                                                       FFTW3
 GLOBAL| Diagonalization library                                            ELPA
 GLOBAL| DGEMM library                                                      BLAS
 GLOBAL| Minimum number of eigenvectors for ELPA usage                        16
 GLOBAL| Orthonormality check for eigenvectors                          DISABLED
 GLOBAL| Matrix multiplication library                                     COSMA
 GLOBAL| All-to-all communication in single precision                          F
 GLOBAL| FFTs using library dependent lengths                                  F
 GLOBAL| Grid backend                                                       AUTO
 GLOBAL| Global print level                                               MEDIUM
 GLOBAL| MPI I/O enabled                                                       T
 GLOBAL| Total number of message passing processes                          1200
 GLOBAL| Number of threads for this process                                    4
 GLOBAL| This output is from process                                           0
 GLOBAL| Stack size for threads created by OpenMP (OMP_STACKSIZE)        default
 GLOBAL| CPU model name                          AMD EPYC 7763 64-Core Processor
 GLOBAL| CPUID                                                              1002
 GLOBAL| Compiled for CPUID                                                    0

 *** HINT in environment.F:882 :: The compiler target flags (generic) used ***
 *** to build this binary cannot exploit all extensions of this CPU model  ***
 *** (x86_avx2). Consider compiler target flags as part of FCFLAGS and     ***
 *** CFLAGS (ARCH file).                                                   ***


 MEMORY| system memory details [Kb]
 MEMORY|                        rank 0           min           max       average
 MEMORY| MemTotal            263914152     263914144     263914156     263914150
 MEMORY| MemFree             239555720     227468072     252310828     245884178
 MEMORY| Buffers                293856         40028        365132        231292
 MEMORY| Cached                8535676       4565284      16797592       6330640
 MEMORY| Slab                  9585508       1911644      13527340       5993580
 MEMORY| SReclaimable           333664        180008        630384        284658
 MEMORY| MemLikelyFree       248718916     244572768     257361368     252730769


 *** Fundamental physical constants (SI units) ***

 *** Literature: B. J. Mohr and B. N. Taylor,
 ***             CODATA recommended values of the fundamental physical
 ***             constants: 2006, Web Version 5.1
 ***             http://physics.nist.gov/constants

 Speed of light in vacuum [m/s]                             2.99792458000000E+08
 Magnetic constant or permeability of vacuum [N/A**2]       1.25663706143592E-06
 Electric constant or permittivity of vacuum [F/m]          8.85418781762039E-12
 Planck constant (h) [J*s]                                  6.62606896000000E-34
 Planck constant (h-bar) [J*s]                              1.05457162825177E-34
 Elementary charge [C]                                      1.60217648700000E-19
 Electron mass [kg]                                         9.10938215000000E-31
 Electron g factor [ ]                                     -2.00231930436220E+00
 Proton mass [kg]                                           1.67262163700000E-27
 Fine-structure constant                                    7.29735253760000E-03
 Rydberg constant [1/m]                                     1.09737315685270E+07
 Avogadro constant [1/mol]                                  6.02214179000000E+23
 Boltzmann constant [J/K]                                   1.38065040000000E-23
 Atomic mass unit [kg]                                      1.66053878200000E-27
 Bohr radius [m]                                            5.29177208590000E-11

 *** Conversion factors ***

 [u] -> [a.u.]                                              1.82288848426455E+03
 [Angstrom] -> [Bohr] = [a.u.]                              1.88972613288564E+00
 [a.u.] = [Bohr] -> [Angstrom]                              5.29177208590000E-01
 [a.u.] -> [s]                                              2.41888432650478E-17
 [a.u.] -> [fs]                                             2.41888432650478E-02
 [a.u.] -> [J]                                              4.35974393937059E-18
 [a.u.] -> [N]                                              8.23872205491840E-08
 [a.u.] -> [K]                                              3.15774647902944E+05
 [a.u.] -> [kJ/mol]                                         2.62549961709828E+03
 [a.u.] -> [kcal/mol]                                       6.27509468713739E+02
 [a.u.] -> [Pa]                                             2.94210107994716E+13
 [a.u.] -> [bar]                                            2.94210107994716E+08
 [a.u.] -> [atm]                                            2.90362800883016E+08
 [a.u.] -> [eV]                                             2.72113838565563E+01
 [a.u.] -> [Hz]                                             6.57968392072181E+15
 [a.u.] -> [1/cm] (wave numbers)                            2.19474631370540E+05
 [a.u./Bohr**2] -> [1/cm]                                   5.14048714338585E+03
 

 CELL_TOP| Volume [angstrom^3]:                                     17314.970895
 CELL_TOP| Vector a [angstrom    36.509     0.000     0.000   |a| =    36.509000
 CELL_TOP| Vector b [angstrom   -18.254    31.618     0.000   |b| =    36.509000
 CELL_TOP| Vector c [angstrom     0.000     0.000    15.000   |c| =    15.000000
 CELL_TOP| Angle (b,c), alpha [degree]:                                90.000000
 CELL_TOP| Angle (a,c), beta  [degree]:                                90.000000
 CELL_TOP| Angle (a,b), gamma [degree]:                               120.000000
 CELL_TOP| Numerically orthorhombic:                                          NO
 CELL_TOP| Periodicity                                                        XY

 CELL_UC| Volume [angstrom^3]:                                        143.098933
 CELL_UC| Vector a [angstrom]     3.319     0.000     0.000   |a| =     3.319000
 CELL_UC| Vector b [angstrom]    -1.659     2.874     0.000   |b| =     3.319000
 CELL_UC| Vector c [angstrom]     0.000     0.000    15.000   |c| =    15.000000
 CELL_UC| Angle (b,c), alpha [degree]:                                 90.000000
 CELL_UC| Angle (a,c), beta  [degree]:                                 90.000000
 CELL_UC| Angle (a,b), gamma [degree]:                                120.000000
 CELL_UC| Numerically orthorhombic:                                           NO
 CELL_UC| Periodicity                                                         XY

 GENERATE|  Preliminary Number of Bonds generated:                             0
 GENERATE|  Achieved consistency in connectivity generation.

 CELL| Volume [angstrom^3]:                                         17314.970895
 CELL| Vector a [angstrom]:      36.509     0.000     0.000   |a| =    36.509000
 CELL| Vector b [angstrom]:     -18.254    31.618     0.000   |b| =    36.509000
 CELL| Vector c [angstrom]:       0.000     0.000    15.000   |c| =    15.000000
 CELL| Angle (b,c), alpha [degree]:                                    90.000000
 CELL| Angle (a,c), beta  [degree]:                                    90.000000
 CELL| Angle (a,b), gamma [degree]:                                   120.000000
 CELL| Numerically orthorhombic:                                              NO
 CELL| Periodicity                                                            XY

 CELL_REF| Volume [angstrom^3]:                                     17314.970895
 CELL_REF| Vector a [angstrom    36.509     0.000     0.000   |a| =    36.509000
 CELL_REF| Vector b [angstrom   -18.254    31.618     0.000   |b| =    36.509000
 CELL_REF| Vector c [angstrom     0.000     0.000    15.000   |c| =    15.000000
 CELL_REF| Angle (b,c), alpha [degree]:                                90.000000
 CELL_REF| Angle (a,c), beta  [degree]:                                90.000000
 CELL_REF| Angle (a,b), gamma [degree]:                               120.000000
 CELL_REF| Numerically orthorhombic:                                          NO
 CELL_REF| Periodicity                                                        XY

 *******************************************************************************
 *******************************************************************************
 **                                                                           **
 **     #####                         ##              ##                      **
 **    ##   ##            ##          ##              ##                      **
 **   ##     ##                       ##            ######                    **
 **   ##     ##  ##   ##  ##   #####  ##  ##   ####   ##    #####    #####    **
 **   ##     ##  ##   ##  ##  ##      ## ##   ##      ##   ##   ##  ##   ##   **
 **   ##  ## ##  ##   ##  ##  ##      ####     ###    ##   ######   ######    **
 **    ##  ###   ##   ##  ##  ##      ## ##      ##   ##   ##       ##        **
 **     #######   #####   ##   #####  ##  ##  ####    ##    #####   ##        **
 **           ##                                                    ##        **
 **                                                                           **
 **                                                ... make the atoms dance   **
 **                                                                           **
 **            Copyright (C) by CP2K developers group (2000-2023)             **
 **                      J. Chem. Phys. 152, 194103 (2020)                    **
 **                                                                           **
 *******************************************************************************

 DFT| Spin restricted Kohn-Sham (RKS) calculation                            RKS
 DFT| Multiplicity                                                             1
 DFT| Number of spin states                                                    1
 DFT| Charge                                                                   0
 DFT| Self-interaction correction (SIC)                                       NO
 DFT| Cutoffs: density                                              1.000000E-10
 DFT|          gradient                                             1.000000E-10
 DFT|          tau                                                  1.000000E-10
 DFT|          cutoff_smoothing_range                               0.000000E+00
 DFT| XC density smoothing                                                  NONE
 DFT| XC derivatives                                                          PW

 FUNCTIONAL| PADE:
 FUNCTIONAL| S. Goedecker, M. Teter and J. Hutter, Phys. Rev. B 54, 1703 (1996) 


 QS| Method:                                                                 GPW
 QS| Density plane wave grid type                        NON-SPHERICAL FULLSPACE
 QS| Number of grid levels:                                                    4
 QS| Density cutoff [a.u.]:                                                250.0
 QS| Multi grid cutoff [a.u.]: 1) grid level                               250.0
 QS|                           2) grid level                                83.3
 QS|                           3) grid level                                27.8
 QS|                           4) grid level                                 9.3
 QS| Grid level progression factor:                                          3.0
 QS| Relative density cutoff [a.u.]:                                        50.0
 QS| Interaction thresholds: eps_pgf_orb:                                1.0E-40
 QS|                         eps_filter_matrix:                          0.0E+00
 QS|                         eps_core_charge:                            1.0E-42
 QS|                         eps_rho_gspace:                             1.0E-40
 QS|                         eps_rho_rspace:                             1.0E-40
 QS|                         eps_gvg_rspace:                             1.0E-20
 QS|                         eps_ppl:                                    1.0E-02
 QS|                         eps_ppnl:                                   1.0E-22


 ATOMIC KIND INFORMATION

  1. Atomic kind: W                                     Number of atoms:     121

     Orbital Basis Set                                        TZVP-MOLOPT-SR-GTH

       Number of orbital shell sets:                                           1
       Number of orbital shells:                                              11
       Number of primitive Cartesian functions:                                6
       Number of Cartesian basis functions:                                   41
       Number of spherical basis functions:                                   35
       Norm type:                                                              2

       Normalised Cartesian orbitals:

                        Set   Shell   Orbital            Exponent    Coefficient

                          1       1    2s                3.103254       0.430480
                                                         2.893835       0.495799
                                                         1.106151      -0.749253
                                                         0.501100      -0.216095
                                                         0.214447       0.032697
                                                         0.074663      -0.009674

                          1       2    3s                3.103254      -0.838448
                                                         2.893835       0.659302
                                                         1.106151       0.041187
                                                         0.501100      -0.061336
                                                         0.214447       0.079342
                                                         0.074663       0.078749

                          1       3    4s                3.103254       1.710384
                                                         2.893835      -1.029561
                                                         1.106151      -0.302972
                                                         0.501100       0.071480
                                                         0.214447      -0.305493
                                                         0.074663       0.172896

                          1       4    5s                3.103254       1.231280
                                                         2.893835      -1.395772
                                                         1.106151       0.316405
                                                         0.501100      -0.291407
                                                         0.214447       0.253777
                                                         0.074663       0.028869

                          1       5    3px               3.103254       6.595006
                                                         2.893835      -5.436829
                                                         1.106151      -0.973670
                                                         0.501100      -0.261913
                                                         0.214447      -0.013952
                                                         0.074663       0.001100
                          1       5    3py               3.103254       6.595006
                                                         2.893835      -5.436829
                                                         1.106151      -0.973670
                                                         0.501100      -0.261913
                                                         0.214447      -0.013952
                                                         0.074663       0.001100
                          1       5    3pz               3.103254       6.595006
                                                         2.893835      -5.436829
                                                         1.106151      -0.973670
                                                         0.501100      -0.261913
                                                         0.214447      -0.013952
                                                         0.074663       0.001100

                          1       6    4px               3.103254      -0.229699
                                                         2.893835       0.340023
                                                         1.106151      -0.266568
                                                         0.501100      -0.017427
                                                         0.214447       0.062174
                                                         0.074663       0.044896
                          1       6    4py               3.103254      -0.229699
                                                         2.893835       0.340023
                                                         1.106151      -0.266568
                                                         0.501100      -0.017427
                                                         0.214447       0.062174
                                                         0.074663       0.044896
                          1       6    4pz               3.103254      -0.229699
                                                         2.893835       0.340023
                                                         1.106151      -0.266568
                                                         0.501100      -0.017427
                                                         0.214447       0.062174
                                                         0.074663       0.044896

                          1       7    5px               3.103254       1.468072
                                                         2.893835      -1.128056
                                                         1.106151       1.371755
                                                         0.501100       0.145890
                                                         0.214447      -0.334609
                                                         0.074663       0.044858
                          1       7    5py               3.103254       1.468072
                                                         2.893835      -1.128056
                                                         1.106151       1.371755
                                                         0.501100       0.145890
                                                         0.214447      -0.334609
                                                         0.074663       0.044858
                          1       7    5pz               3.103254       1.468072
                                                         2.893835      -1.128056
                                                         1.106151       1.371755
                                                         0.501100       0.145890
                                                         0.214447      -0.334609
                                                         0.074663       0.044858

                          1       8    4dx2              3.103254      -0.073430
                                                         2.893835       0.214195
                                                         1.106151       0.645387
                                                         0.501100       0.199794
                                                         0.214447       0.032379
                                                         0.074663       0.003876
                          1       8    4dxy              3.103254      -0.127184
                                                         2.893835       0.370997
                                                         1.106151       1.117844
                                                         0.501100       0.346053
                                                         0.214447       0.056082
                                                         0.074663       0.006714
                          1       8    4dxz              3.103254      -0.127184
                                                         2.893835       0.370997
                                                         1.106151       1.117844
                                                         0.501100       0.346053
                                                         0.214447       0.056082
                                                         0.074663       0.006714
                          1       8    4dy2              3.103254      -0.073430
                                                         2.893835       0.214195
                                                         1.106151       0.645387
                                                         0.501100       0.199794
                                                         0.214447       0.032379
                                                         0.074663       0.003876
                          1       8    4dyz              3.103254      -0.127184
                                                         2.893835       0.370997
                                                         1.106151       1.117844
                                                         0.501100       0.346053
                                                         0.214447       0.056082
                                                         0.074663       0.006714
                          1       8    4dz2              3.103254      -0.073430
                                                         2.893835       0.214195
                                                         1.106151       0.645387
                                                         0.501100       0.199794
                                                         0.214447       0.032379
                                                         0.074663       0.003876

                          1       9    5dx2              3.103254       0.131236
                                                         2.893835      -0.269688
                                                         1.106151      -0.639375
                                                         0.501100      -0.218460
                                                         0.214447       0.054987
                                                         0.074663       0.011491
                          1       9    5dxy              3.103254       0.227308
                                                         2.893835      -0.467113
                                                         1.106151      -1.107431
                                                         0.501100      -0.378383
                                                         0.214447       0.095240
                                                         0.074663       0.019903
                          1       9    5dxz              3.103254       0.227308
                                                         2.893835      -0.467113
                                                         1.106151      -1.107431
                                                         0.501100      -0.378383
                                                         0.214447       0.095240
                                                         0.074663       0.019903
                          1       9    5dy2              3.103254       0.131236
                                                         2.893835      -0.269688
                                                         1.106151      -0.639375
                                                         0.501100      -0.218460
                                                         0.214447       0.054987
                                                         0.074663       0.011491
                          1       9    5dyz              3.103254       0.227308
                                                         2.893835      -0.467113
                                                         1.106151      -1.107431
                                                         0.501100      -0.378383
                                                         0.214447       0.095240
                                                         0.074663       0.019903
                          1       9    5dz2              3.103254       0.131236
                                                         2.893835      -0.269688
                                                         1.106151      -0.639375
                                                         0.501100      -0.218460
                                                         0.214447       0.054987
                                                         0.074663       0.011491

                          1      10    6dx2              3.103254      11.532441
                                                         2.893835     -11.449410
                                                         1.106151       0.939358
                                                         0.501100      -0.005417
                                                         0.214447      -0.145639
                                                         0.074663       0.020374
                          1      10    6dxy              3.103254      19.974774
                                                         2.893835     -19.830960
                                                         1.106151       1.627016
                                                         0.501100      -0.009382
                                                         0.214447      -0.252255
                                                         0.074663       0.035289
                          1      10    6dxz              3.103254      19.974774
                                                         2.893835     -19.830960
                                                         1.106151       1.627016
                                                         0.501100      -0.009382
                                                         0.214447      -0.252255
                                                         0.074663       0.035289
                          1      10    6dy2              3.103254      11.532441
                                                         2.893835     -11.449410
                                                         1.106151       0.939358
                                                         0.501100      -0.005417
                                                         0.214447      -0.145639
                                                         0.074663       0.020374
                          1      10    6dyz              3.103254      19.974774
                                                         2.893835     -19.830960
                                                         1.106151       1.627016
                                                         0.501100      -0.009382
                                                         0.214447      -0.252255
                                                         0.074663       0.035289
                          1      10    6dz2              3.103254      11.532441
                                                         2.893835     -11.449410
                                                         1.106151       0.939358
                                                         0.501100      -0.005417
                                                         0.214447      -0.145639
                                                         0.074663       0.020374

                          1      11    5fx3              3.103254      -2.194270
                                                         2.893835       2.425274
                                                         1.106151      -0.369945
                                                         0.501100      -0.176940
                                                         0.214447      -0.017061
                                                         0.074663      -0.000241
                          1      11    5fx2y             3.103254      -4.906538
                                                         2.893835       5.423078
                                                         1.106151      -0.827223
                                                         0.501100      -0.395650
                                                         0.214447      -0.038149
                                                         0.074663      -0.000540
                          1      11    5fx2z             3.103254      -4.906538
                                                         2.893835       5.423078
                                                         1.106151      -0.827223
                                                         0.501100      -0.395650
                                                         0.214447      -0.038149
                                                         0.074663      -0.000540
                          1      11    5fxy2             3.103254      -4.906538
                                                         2.893835       5.423078
                                                         1.106151      -0.827223
                                                         0.501100      -0.395650
                                                         0.214447      -0.038149
                                                         0.074663      -0.000540
                          1      11    5fxyz             3.103254      -8.498372
                                                         2.893835       9.393047
                                                         1.106151      -1.432792
                                                         0.501100      -0.685285
                                                         0.214447      -0.066076
                                                         0.074663      -0.000935
                          1      11    5fxz2             3.103254      -4.906538
                                                         2.893835       5.423078
                                                         1.106151      -0.827223
                                                         0.501100      -0.395650
                                                         0.214447      -0.038149
                                                         0.074663      -0.000540
                          1      11    5fy3              3.103254      -2.194270
                                                         2.893835       2.425274
                                                         1.106151      -0.369945
                                                         0.501100      -0.176940
                                                         0.214447      -0.017061
                                                         0.074663      -0.000241
                          1      11    5fy2z             3.103254      -4.906538
                                                         2.893835       5.423078
                                                         1.106151      -0.827223
                                                         0.501100      -0.395650
                                                         0.214447      -0.038149
                                                         0.074663      -0.000540
                          1      11    5fyz2             3.103254      -4.906538
                                                         2.893835       5.423078
                                                         1.106151      -0.827223
                                                         0.501100      -0.395650
                                                         0.214447      -0.038149
                                                         0.074663      -0.000540
                          1      11    5fz3              3.103254      -2.194270
                                                         2.893835       2.425274
                                                         1.106151      -0.369945
                                                         0.501100      -0.176940
                                                         0.214447      -0.017061
                                                         0.074663      -0.000241

     RI Auxiliary Basis Set                                 def2-SVP-RIFIT-mod-2

       Number of orbital shell sets:                                          20
       Number of orbital shells:                                              20
       Number of primitive Cartesian functions:                               20
       Number of Cartesian basis functions:                                  108
       Number of spherical basis functions:                                   82
       Norm type:                                                              2

       Normalised Cartesian orbitals:

                        Set   Shell   Orbital            Exponent    Coefficient

                          1       1    1s                0.208675       0.220046

                          2       1    1fx3              0.253216       0.066959
                          2       1    1fx2y             0.253216       0.149725
                          2       1    1fx2z             0.253216       0.149725
                          2       1    1fxy2             0.253216       0.149725
                          2       1    1fxyz             0.253216       0.259331
                          2       1    1fxz2             0.253216       0.149725
                          2       1    1fy3              0.253216       0.066959
                          2       1    1fy2z             0.253216       0.149725
                          2       1    1fyz2             0.253216       0.149725
                          2       1    1fz3              0.253216       0.066959

                          3       1    1gx4              0.265033       0.028874
                          3       1    1gx3y             0.265033       0.076394
                          3       1    1gx3z             0.265033       0.076394
                          3       1    1gx2y2            0.265033       0.098624
                          3       1    1gx2yz            0.265033       0.170822
                          3       1    1gx2z2            0.265033       0.098624
                          3       1    1gxy3             0.265033       0.076394
                          3       1    1gxy2z            0.265033       0.170822
                          3       1    1gxyz2            0.265033       0.170822
                          3       1    1gxz3             0.265033       0.076394
                          3       1    1gy4              0.265033       0.028874
                          3       1    1gy3z             0.265033       0.076394
                          3       1    1gy2z2            0.265033       0.098624
                          3       1    1gyz3             0.265033       0.076394
                          3       1    1gz4              0.265033       0.028874

                          4       1    1px               0.269126       0.276302
                          4       1    1py               0.269126       0.276302
                          4       1    1pz               0.269126       0.276302

                          5       1    1dx2              0.304026       0.204882
                          5       1    1dxy              0.304026       0.354866
                          5       1    1dxz              0.304026       0.354866
                          5       1    1dy2              0.304026       0.204882
                          5       1    1dyz              0.304026       0.354866
                          5       1    1dz2              0.304026       0.204882

                          6       1    1s                0.364638       0.334431

                          7       1    1fx3              0.470422       0.269806
                          7       1    1fx2y             0.470422       0.603305
                          7       1    1fx2z             0.470422       0.603305
                          7       1    1fxy2             0.470422       0.603305
                          7       1    1fxyz             0.470422       1.044954
                          7       1    1fxz2             0.470422       0.603305
                          7       1    1fy3              0.470422       0.269806
                          7       1    1fy2z             0.470422       0.603305
                          7       1    1fyz2             0.470422       0.603305
                          7       1    1fz3              0.470422       0.269806

                          8       1    1s                0.648984       0.515330

                          9       1    1dx2              0.719090       0.924230
                          9       1    1dxy              0.719090       1.600814
                          9       1    1dxz              0.719090       1.600814
                          9       1    1dy2              0.719090       0.924230
                          9       1    1dyz              0.719090       1.600814
                          9       1    1dz2              0.719090       0.924230

                         10       1    1gx4              0.914481       0.870294
                         10       1    1gx3y             0.914481       2.302581
                         10       1    1gx3z             0.914481       2.302581
                         10       1    1gx2y2            0.914481       2.972619
                         10       1    1gx2yz            0.914481       5.148727
                         10       1    1gx2z2            0.914481       2.972619
                         10       1    1gxy3             0.914481       2.302581
                         10       1    1gxy2z            0.914481       5.148727
                         10       1    1gxyz2            0.914481       5.148727
                         10       1    1gxz3             0.914481       2.302581
                         10       1    1gy4              0.914481       0.870294
                         10       1    1gy3z             0.914481       2.302581
                         10       1    1gy2z2            0.914481       2.972619
                         10       1    1gyz3             0.914481       2.302581
                         10       1    1gz4              0.914481       0.870294

                         11       1    1px               0.967490       1.367723
                         11       1    1py               0.967490       1.367723
                         11       1    1pz               0.967490       1.367723

                         12       1    1dx2              1.179750       2.198072
                         12       1    1dxy              1.179750       3.807173
                         12       1    1dxz              1.179750       3.807173
                         12       1    1dy2              1.179750       2.198072
                         12       1    1dyz              1.179750       3.807173
                         12       1    1dz2              1.179750       2.198072

                         13       1    1fx3              1.281070       2.570357
                         13       1    1fx2y             1.281070       5.747492
                         13       1    1fx2z             1.281070       5.747492
                         13       1    1fxy2             1.281070       5.747492
                         13       1    1fxyz             1.281070       9.954948
                         13       1    1fxz2             1.281070       5.747492
                         13       1    1fy3              1.281070       2.570357
                         13       1    1fy2z             1.281070       5.747492
                         13       1    1fyz2             1.281070       5.747492
                         13       1    1fz3              1.281070       2.570357

                         14       1    1s                1.466370       0.949714

                         15       1    1px               1.939290       3.262072
                         15       1    1py               1.939290       3.262072
                         15       1    1pz               1.939290       3.262072

                         16       1    1s                2.101910       1.244144

                         17       1    1dx2              2.484170       8.090526
                         17       1    1dxy              2.484170      14.013202
                         17       1    1dxz              2.484170      14.013202
                         17       1    1dy2              2.484170       8.090526
                         17       1    1dyz              2.484170      14.013202
                         17       1    1dz2              2.484170       8.090526

                         18       1    1px               2.934310       5.474224
                         18       1    1py               2.934310       5.474224
                         18       1    1pz               2.934310       5.474224

                         19       1    1s                3.287500       1.740041

                         20       1    1dx2              4.561580      23.434799
                         20       1    1dxy              4.561580      40.590262
                         20       1    1dxz              4.561580      40.590262
                         20       1    1dy2              4.561580      23.434799
                         20       1    1dyz              4.561580      40.590262
                         20       1    1dz2              4.561580      23.434799

       Atomic covalent radius [Angstrom]:                                  1.300

       Atomic van der Waals radius [Angstrom]:                             1.670

     GTH Potential information for                                  GTH-PADE-q14

       Description:                       Goedecker-Teter-Hutter pseudopotential
                                           Goedecker et al., PRB 54, 1703 (1996)
                                          Hartwigsen et al., PRB 58, 3641 (1998)
                                                      Krack, TCA 114, 145 (2005)

       Gaussian exponent of the core charge distribution:               1.714678
       Electronic configuration (s p d ...):                           4   6   4

       Parameters of the local part of the GTH pseudopotential:

                          rloc        C1          C2          C3          C4
                        0.540000    4.800251    0.901544

       Parameters of the non-local part of the GTH pseudopotential:

                   l      r(l)      h(i,j,l)

                   0    0.418570    2.692204    2.332557    0.297239
                                    2.332557   -6.022638   -0.767467
                                    0.297239   -0.767467    1.218316
                   1    0.449555   -0.702084    1.036024
                                    1.036024   -2.451680
                   2    0.399602    1.177436    2.448917
                                    2.448917   -5.553621

  2. Atomic kind: Se                                    Number of atoms:     242

     Orbital Basis Set                                        TZVP-MOLOPT-SR-GTH

       Number of orbital shell sets:                                           1
       Number of orbital shells:                                               7
       Number of primitive Cartesian functions:                                4
       Number of Cartesian basis functions:                                   18
       Number of spherical basis functions:                                   17
       Norm type:                                                              2

       Normalised Cartesian orbitals:

                        Set   Shell   Orbital            Exponent    Coefficient

                          1       1    2s                1.465689       0.302678
                                                         1.029752      -0.073168
                                                         0.303575      -0.202711
                                                         0.107173      -0.059713

                          1       2    3s                1.465689      -0.155491
                                                         1.029752       0.241663
                                                         0.303575      -0.363851
                                                         0.107173       0.233571

                          1       3    4s                1.465689       1.273873
                                                         1.029752      -0.825574
                                                         0.303575       0.111847
                                                         0.107173       0.081995

                          1       4    3px               1.465689       0.612976
                                                         1.029752      -0.484874
                                                         0.303575      -0.234718
                                                         0.107173      -0.021524
                          1       4    3py               1.465689       0.612976
                                                         1.029752      -0.484874
                                                         0.303575      -0.234718
                                                         0.107173      -0.021524
                          1       4    3pz               1.465689       0.612976
                                                         1.029752      -0.484874
                                                         0.303575      -0.234718
                                                         0.107173      -0.021524

                          1       5    4px               1.465689       0.383325
                                                         1.029752      -0.329453
                                                         0.303575      -0.075164
                                                         0.107173       0.102417
                          1       5    4py               1.465689       0.383325
                                                         1.029752      -0.329453
                                                         0.303575      -0.075164
                                                         0.107173       0.102417
                          1       5    4pz               1.465689       0.383325
                                                         1.029752      -0.329453
                                                         0.303575      -0.075164
                                                         0.107173       0.102417

                          1       6    5px               1.465689       3.760520
                                                         1.029752      -2.704359
                                                         0.303575       0.485527
                                                         0.107173      -0.024362
                          1       6    5py               1.465689       3.760520
                                                         1.029752      -2.704359
                                                         0.303575       0.485527
                                                         0.107173      -0.024362
                          1       6    5pz               1.465689       3.760520
                                                         1.029752      -2.704359
                                                         0.303575       0.485527
                                                         0.107173      -0.024362

                          1       7    4dx2              1.465689       0.513111
                                                         1.029752      -0.664167
                                                         0.303575      -0.134856
                                                         0.107173      -0.008700
                          1       7    4dxy              1.465689       0.888735
                                                         1.029752      -1.150371
                                                         0.303575      -0.233577
                                                         0.107173      -0.015069
                          1       7    4dxz              1.465689       0.888735
                                                         1.029752      -1.150371
                                                         0.303575      -0.233577
                                                         0.107173      -0.015069
                          1       7    4dy2              1.465689       0.513111
                                                         1.029752      -0.664167
                                                         0.303575      -0.134856
                                                         0.107173      -0.008700
                          1       7    4dyz              1.465689       0.888735
                                                         1.029752      -1.150371
                                                         0.303575      -0.233577
                                                         0.107173      -0.015069
                          1       7    4dz2              1.465689       0.513111
                                                         1.029752      -0.664167
                                                         0.303575      -0.134856
                                                         0.107173      -0.008700

     RI Auxiliary Basis Set                               def2-SVP-RIFIT-mod-2-1

       Number of orbital shell sets:                                          16
       Number of orbital shells:                                              16
       Number of primitive Cartesian functions:                               16
       Number of Cartesian basis functions:                                   64
       Number of spherical basis functions:                                   54
       Norm type:                                                              2

       Normalised Cartesian orbitals:

                        Set   Shell   Orbital            Exponent    Coefficient

                          1       1    1s                0.198146       0.211665

                          2       1    1dx2              0.205873       0.103564
                          2       1    1dxy              0.205873       0.179379
                          2       1    1dxz              0.205873       0.179379
                          2       1    1dy2              0.205873       0.103564
                          2       1    1dyz              0.205873       0.179379
                          2       1    1dz2              0.205873       0.103564

                          3       1    1px               0.271607       0.279490
                          3       1    1py               0.271607       0.279490
                          3       1    1pz               0.271607       0.279490

                          4       1    1fx3              0.330155       0.121638
                          4       1    1fx2y             0.330155       0.271990
                          4       1    1fx2z             0.330155       0.271990
                          4       1    1fxy2             0.330155       0.271990
                          4       1    1fxyz             0.330155       0.471101
                          4       1    1fxz2             0.330155       0.271990
                          4       1    1fy3              0.330155       0.121638
                          4       1    1fy2z             0.330155       0.271990
                          4       1    1fyz2             0.330155       0.271990
                          4       1    1fz3              0.330155       0.121638

                          5       1    1s                0.368618       0.337165

                          6       1    1dx2              0.492940       0.477308
                          6       1    1dxy              0.492940       0.826723
                          6       1    1dxz              0.492940       0.826723
                          6       1    1dy2              0.492940       0.477308
                          6       1    1dyz              0.492940       0.826723
                          6       1    1dz2              0.492940       0.477308

                          7       1    1px               0.522961       0.633908
                          7       1    1py               0.522961       0.633908
                          7       1    1pz               0.522961       0.633908

                          8       1    1s                0.572587       0.469128

                          9       1    1dx2              0.761541       1.021817
                          9       1    1dxy              0.761541       1.769839
                          9       1    1dxz              0.761541       1.769839
                          9       1    1dy2              0.761541       1.021817
                          9       1    1dyz              0.761541       1.769839
                          9       1    1dz2              0.761541       1.021817

                         10       1    1px               1.002555       1.429965
                         10       1    1py               1.002555       1.429965
                         10       1    1pz               1.002555       1.429965

                         11       1    1dx2              1.339632       2.745579
                         11       1    1dxy              1.339632       4.755483
                         11       1    1dxz              1.339632       4.755483
                         11       1    1dy2              1.339632       2.745579
                         11       1    1dyz              1.339632       4.755483
                         11       1    1dz2              1.339632       2.745579

                         12       1    1fx3              1.492646       3.625412
                         12       1    1fx2y             1.492646       8.106668
                         12       1    1fx2z             1.492646       8.106668
                         12       1    1fxy2             1.492646       8.106668
                         12       1    1fxyz             1.492646      14.041160
                         12       1    1fxz2             1.492646       8.106668
                         12       1    1fy3              1.492646       3.625412
                         12       1    1fy2z             1.492646       8.106668
                         12       1    1fyz2             1.492646       8.106668
                         12       1    1fz3              1.492646       3.625412

                         13       1    1px               1.705131       2.777392
                         13       1    1py               1.705131       2.777392
                         13       1    1pz               1.705131       2.777392

                         14       1    1s                2.077977       1.233504

                         15       1    1px               3.832640       7.643857
                         15       1    1py               3.832640       7.643857
                         15       1    1pz               3.832640       7.643857

                         16       1    1s                4.797700       2.310388

       Atomic covalent radius [Angstrom]:                                  1.160

       Atomic van der Waals radius [Angstrom]:                             1.900

     GTH Potential information for                                   GTH-PADE-q6

       Description:                       Goedecker-Teter-Hutter pseudopotential
                                           Goedecker et al., PRB 54, 1703 (1996)
                                          Hartwigsen et al., PRB 58, 3641 (1998)
                                                      Krack, TCA 114, 145 (2005)

       Gaussian exponent of the core charge distribution:               1.922338
       Electronic configuration (s p d ...):                               2   4

       Parameters of the local part of the GTH pseudopotential:

                          rloc        C1          C2          C3          C4
                        0.510000

       Parameters of the non-local part of the GTH pseudopotential:

                   l      r(l)      h(i,j,l)

                   0    0.432531    5.145131   -0.794740   -0.334051
                                   -0.794740    2.052009    0.862517
                                   -0.334051    0.862517   -1.369203
                   1    0.472473    2.858806    0.249604
                                    0.249604   -0.590670
                   2    0.613420    0.434829


 MOLECULE KIND INFORMATION


 All atoms are their own molecule, skipping detailed information


 TOTAL NUMBERS AND MAXIMUM NUMBERS

  Total number of            - Atomic kinds:                                   2
                             - Atoms:                                        363
                             - Shell sets:                                   363
                             - Shells:                                      3025
                             - Primitive Cartesian functions:               1694
                             - Cartesian basis functions:                   9317
                             - Spherical basis functions:                   8349

  Maximum angular momentum of- Orbital basis functions:                        3
                             - Local part of the GTH pseudopotential:          2
                             - Non-local part of the GTH pseudopotential:      4


 MODULE QUICKSTEP: ATOMIC COORDINATES IN ANGSTROM

   Atom Kind Element         X             Y             Z       Z(eff)     Mass
      1    1 W    74      0.000000      0.000000      2.179276  14.0000 183.8400
      2    2 Se   34      1.659503      0.958115      3.858553   6.0000  78.9600
      3    2 Se   34      1.659503      0.958115      0.500000   6.0000  78.9600
      4    1 W    74      3.319000      0.000000      2.179276  14.0000 183.8400
      5    2 Se   34      4.978503      0.958115      3.858553   6.0000  78.9600
      6    2 Se   34      4.978503      0.958115      0.500000   6.0000  78.9600
      7    1 W    74      6.638000      0.000000      2.179276  14.0000 183.8400
      8    2 Se   34      8.297503      0.958115      3.858553   6.0000  78.9600
      9    2 Se   34      8.297503      0.958115      0.500000   6.0000  78.9600
     10    1 W    74      9.957000      0.000000      2.179276  14.0000 183.8400
     11    2 Se   34     11.616503      0.958115      3.858553   6.0000  78.9600
     12    2 Se   34     11.616503      0.958115      0.500000   6.0000  78.9600
     13    1 W    74     13.276000      0.000000      2.179276  14.0000 183.8400
     14    2 Se   34     14.935503      0.958115      3.858553   6.0000  78.9600
     15    2 Se   34     14.935503      0.958115      0.500000   6.0000  78.9600
     16    1 W    74     16.595000      0.000000      2.179276  14.0000 183.8400
     17    2 Se   34     18.254503      0.958115      3.858553   6.0000  78.9600
     18    2 Se   34     18.254503      0.958115      0.500000   6.0000  78.9600
     19    1 W    74     19.914000      0.000000      2.179276  14.0000 183.8400
     20    2 Se   34     21.573503      0.958115      3.858553   6.0000  78.9600
     21    2 Se   34     21.573503      0.958115      0.500000   6.0000  78.9600
     22    1 W    74     23.233000      0.000000      2.179276  14.0000 183.8400
     23    2 Se   34     24.892503      0.958115      3.858553   6.0000  78.9600
     24    2 Se   34     24.892503      0.958115      0.500000   6.0000  78.9600
     25    1 W    74     26.552000      0.000000      2.179276  14.0000 183.8400
     26    2 Se   34     28.211503      0.958115      3.858553   6.0000  78.9600
     27    2 Se   34     28.211503      0.958115      0.500000   6.0000  78.9600
     28    1 W    74     29.871000      0.000000      2.179276  14.0000 183.8400
     29    2 Se   34     31.530503      0.958115      3.858553   6.0000  78.9600
     30    2 Se   34     31.530503      0.958115      0.500000   6.0000  78.9600
     31    1 W    74     33.190000      0.000000      2.179276  14.0000 183.8400
     32    2 Se   34     34.849503      0.958115      3.858553   6.0000  78.9600
     33    2 Se   34     34.849503      0.958115      0.500000   6.0000  78.9600
     34    1 W    74     -1.659500      2.874338      2.179276  14.0000 183.8400
     35    2 Se   34      0.000003      3.832453      3.858553   6.0000  78.9600
     36    2 Se   34      0.000003      3.832453      0.500000   6.0000  78.9600
     37    1 W    74      1.659500      2.874338      2.179276  14.0000 183.8400
     38    2 Se   34      3.319003      3.832453      3.858553   6.0000  78.9600
     39    2 Se   34      3.319003      3.832453      0.500000   6.0000  78.9600
     40    1 W    74      4.978500      2.874338      2.179276  14.0000 183.8400
     41    2 Se   34      6.638003      3.832453      3.858553   6.0000  78.9600
     42    2 Se   34      6.638003      3.832453      0.500000   6.0000  78.9600
     43    1 W    74      8.297500      2.874338      2.179276  14.0000 183.8400
     44    2 Se   34      9.957003      3.832453      3.858553   6.0000  78.9600
     45    2 Se   34      9.957003      3.832453      0.500000   6.0000  78.9600
     46    1 W    74     11.616500      2.874338      2.179276  14.0000 183.8400
     47    2 Se   34     13.276003      3.832453      3.858553   6.0000  78.9600
     48    2 Se   34     13.276003      3.832453      0.500000   6.0000  78.9600
     49    1 W    74     14.935500      2.874338      2.179276  14.0000 183.8400
     50    2 Se   34     16.595003      3.832453      3.858553   6.0000  78.9600
     51    2 Se   34     16.595003      3.832453      0.500000   6.0000  78.9600
     52    1 W    74     18.254500      2.874338      2.179276  14.0000 183.8400
     53    2 Se   34     19.914003      3.832453      3.858553   6.0000  78.9600
     54    2 Se   34     19.914003      3.832453      0.500000   6.0000  78.9600
     55    1 W    74     21.573500      2.874338      2.179276  14.0000 183.8400
     56    2 Se   34     23.233003      3.832453      3.858553   6.0000  78.9600
     57    2 Se   34     23.233003      3.832453      0.500000   6.0000  78.9600
     58    1 W    74     24.892500      2.874338      2.179276  14.0000 183.8400
     59    2 Se   34     26.552003      3.832453      3.858553   6.0000  78.9600
     60    2 Se   34     26.552003      3.832453      0.500000   6.0000  78.9600
     61    1 W    74     28.211500      2.874338      2.179276  14.0000 183.8400
     62    2 Se   34     29.871003      3.832453      3.858553   6.0000  78.9600
     63    2 Se   34     29.871003      3.832453      0.500000   6.0000  78.9600
     64    1 W    74     31.530500      2.874338      2.179276  14.0000 183.8400
     65    2 Se   34     33.190003      3.832453      3.858553   6.0000  78.9600
     66    2 Se   34     33.190003      3.832453      0.500000   6.0000  78.9600
     67    1 W    74     -3.319000      5.748677      2.179276  14.0000 183.8400
     68    2 Se   34     -1.659497      6.706791      3.858553   6.0000  78.9600
     69    2 Se   34     -1.659497      6.706791      0.500000   6.0000  78.9600
     70    1 W    74      0.000000      5.748677      2.179276  14.0000 183.8400
     71    2 Se   34      1.659503      6.706791      3.858553   6.0000  78.9600
     72    2 Se   34      1.659503      6.706791      0.500000   6.0000  78.9600
     73    1 W    74      3.319000      5.748677      2.179276  14.0000 183.8400
     74    2 Se   34      4.978503      6.706791      3.858553   6.0000  78.9600
     75    2 Se   34      4.978503      6.706791      0.500000   6.0000  78.9600
     76    1 W    74      6.638000      5.748677      2.179276  14.0000 183.8400
     77    2 Se   34      8.297503      6.706791      3.858553   6.0000  78.9600
     78    2 Se   34      8.297503      6.706791      0.500000   6.0000  78.9600
     79    1 W    74      9.957000      5.748677      2.179276  14.0000 183.8400
     80    2 Se   34     11.616503      6.706791      3.858553   6.0000  78.9600
     81    2 Se   34     11.616503      6.706791      0.500000   6.0000  78.9600
     82    1 W    74     13.276000      5.748677      2.179276  14.0000 183.8400
     83    2 Se   34     14.935503      6.706791      3.858553   6.0000  78.9600
     84    2 Se   34     14.935503      6.706791      0.500000   6.0000  78.9600
     85    1 W    74     16.595000      5.748677      2.179276  14.0000 183.8400
     86    2 Se   34     18.254503      6.706791      3.858553   6.0000  78.9600
     87    2 Se   34     18.254503      6.706791      0.500000   6.0000  78.9600
     88    1 W    74     19.914000      5.748677      2.179276  14.0000 183.8400
     89    2 Se   34     21.573503      6.706791      3.858553   6.0000  78.9600
     90    2 Se   34     21.573503      6.706791      0.500000   6.0000  78.9600
     91    1 W    74     23.233000      5.748677      2.179276  14.0000 183.8400
     92    2 Se   34     24.892503      6.706791      3.858553   6.0000  78.9600
     93    2 Se   34     24.892503      6.706791      0.500000   6.0000  78.9600
     94    1 W    74     26.552000      5.748677      2.179276  14.0000 183.8400
     95    2 Se   34     28.211503      6.706791      3.858553   6.0000  78.9600
     96    2 Se   34     28.211503      6.706791      0.500000   6.0000  78.9600
     97    1 W    74     29.871000      5.748677      2.179276  14.0000 183.8400
     98    2 Se   34     31.530503      6.706791      3.858553   6.0000  78.9600
     99    2 Se   34     31.530503      6.706791      0.500000   6.0000  78.9600
    100    1 W    74     -4.978500      8.623015      2.179276  14.0000 183.8400
    101    2 Se   34     -3.318997      9.581130      3.858553   6.0000  78.9600
    102    2 Se   34     -3.318997      9.581130      0.500000   6.0000  78.9600
    103    1 W    74     -1.659500      8.623015      2.179276  14.0000 183.8400
    104    2 Se   34      0.000003      9.581130      3.858553   6.0000  78.9600
    105    2 Se   34      0.000003      9.581130      0.500000   6.0000  78.9600
    106    1 W    74      1.659500      8.623015      2.179276  14.0000 183.8400
    107    2 Se   34      3.319003      9.581130      3.858553   6.0000  78.9600
    108    2 Se   34      3.319003      9.581130      0.500000   6.0000  78.9600
    109    1 W    74      4.978500      8.623015      2.179276  14.0000 183.8400
    110    2 Se   34      6.638003      9.581130      3.858553   6.0000  78.9600
    111    2 Se   34      6.638003      9.581130      0.500000   6.0000  78.9600
    112    1 W    74      8.297500      8.623015      2.179276  14.0000 183.8400
    113    2 Se   34      9.957003      9.581130      3.858553   6.0000  78.9600
    114    2 Se   34      9.957003      9.581130      0.500000   6.0000  78.9600
    115    1 W    74     11.616500      8.623015      2.179276  14.0000 183.8400
    116    2 Se   34     13.276003      9.581130      3.858553   6.0000  78.9600
    117    2 Se   34     13.276003      9.581130      0.500000   6.0000  78.9600
    118    1 W    74     14.935500      8.623015      2.179276  14.0000 183.8400
    119    2 Se   34     16.595003      9.581130      3.858553   6.0000  78.9600
    120    2 Se   34     16.595003      9.581130      0.500000   6.0000  78.9600
    121    1 W    74     18.254500      8.623015      2.179276  14.0000 183.8400
    122    2 Se   34     19.914003      9.581130      3.858553   6.0000  78.9600
    123    2 Se   34     19.914003      9.581130      0.500000   6.0000  78.9600
    124    1 W    74     21.573500      8.623015      2.179276  14.0000 183.8400
    125    2 Se   34     23.233003      9.581130      3.858553   6.0000  78.9600
    126    2 Se   34     23.233003      9.581130      0.500000   6.0000  78.9600
    127    1 W    74     24.892500      8.623015      2.179276  14.0000 183.8400
    128    2 Se   34     26.552003      9.581130      3.858553   6.0000  78.9600
    129    2 Se   34     26.552003      9.581130      0.500000   6.0000  78.9600
    130    1 W    74     28.211500      8.623015      2.179276  14.0000 183.8400
    131    2 Se   34     29.871003      9.581130      3.858553   6.0000  78.9600
    132    2 Se   34     29.871003      9.581130      0.500000   6.0000  78.9600
    133    1 W    74     -6.638000     11.497353      2.179276  14.0000 183.8400
    134    2 Se   34     -4.978497     12.455468      3.858553   6.0000  78.9600
    135    2 Se   34     -4.978497     12.455468      0.500000   6.0000  78.9600
    136    1 W    74     -3.319000     11.497353      2.179276  14.0000 183.8400
    137    2 Se   34     -1.659497     12.455468      3.858553   6.0000  78.9600
    138    2 Se   34     -1.659497     12.455468      0.500000   6.0000  78.9600
    139    1 W    74      0.000000     11.497353      2.179276  14.0000 183.8400
    140    2 Se   34      1.659503     12.455468      3.858553   6.0000  78.9600
    141    2 Se   34      1.659503     12.455468      0.500000   6.0000  78.9600
    142    1 W    74      3.319000     11.497353      2.179276  14.0000 183.8400
    143    2 Se   34      4.978503     12.455468      3.858553   6.0000  78.9600
    144    2 Se   34      4.978503     12.455468      0.500000   6.0000  78.9600
    145    1 W    74      6.638000     11.497353      2.179276  14.0000 183.8400
    146    2 Se   34      8.297503     12.455468      3.858553   6.0000  78.9600
    147    2 Se   34      8.297503     12.455468      0.500000   6.0000  78.9600
    148    1 W    74      9.957000     11.497353      2.179276  14.0000 183.8400
    149    2 Se   34     11.616503     12.455468      3.858553   6.0000  78.9600
    150    2 Se   34     11.616503     12.455468      0.500000   6.0000  78.9600
    151    1 W    74     13.276000     11.497353      2.179276  14.0000 183.8400
    152    2 Se   34     14.935503     12.455468      3.858553   6.0000  78.9600
    153    2 Se   34     14.935503     12.455468      0.500000   6.0000  78.9600
    154    1 W    74     16.595000     11.497353      2.179276  14.0000 183.8400
    155    2 Se   34     18.254503     12.455468      3.858553   6.0000  78.9600
    156    2 Se   34     18.254503     12.455468      0.500000   6.0000  78.9600
    157    1 W    74     19.914000     11.497353      2.179276  14.0000 183.8400
    158    2 Se   34     21.573503     12.455468      3.858553   6.0000  78.9600
    159    2 Se   34     21.573503     12.455468      0.500000   6.0000  78.9600
    160    1 W    74     23.233000     11.497353      2.179276  14.0000 183.8400
    161    2 Se   34     24.892503     12.455468      3.858553   6.0000  78.9600
    162    2 Se   34     24.892503     12.455468      0.500000   6.0000  78.9600
    163    1 W    74     26.552000     11.497353      2.179276  14.0000 183.8400
    164    2 Se   34     28.211503     12.455468      3.858553   6.0000  78.9600
    165    2 Se   34     28.211503     12.455468      0.500000   6.0000  78.9600
    166    1 W    74     -8.297500     14.371692      2.179276  14.0000 183.8400
    167    2 Se   34     -6.637997     15.329806      3.858553   6.0000  78.9600
    168    2 Se   34     -6.637997     15.329806      0.500000   6.0000  78.9600
    169    1 W    74     -4.978500     14.371692      2.179276  14.0000 183.8400
    170    2 Se   34     -3.318997     15.329806      3.858553   6.0000  78.9600
    171    2 Se   34     -3.318997     15.329806      0.500000   6.0000  78.9600
    172    1 W    74     -1.659500     14.371692      2.179276  14.0000 183.8400
    173    2 Se   34      0.000003     15.329806      3.858553   6.0000  78.9600
    174    2 Se   34      0.000003     15.329806      0.500000   6.0000  78.9600
    175    1 W    74      1.659500     14.371692      2.179276  14.0000 183.8400
    176    2 Se   34      3.319003     15.329806      3.858553   6.0000  78.9600
    177    2 Se   34      3.319003     15.329806      0.500000   6.0000  78.9600
    178    1 W    74      4.978500     14.371692      2.179276  14.0000 183.8400
    179    2 Se   34      6.638003     15.329806      3.858553   6.0000  78.9600
    180    2 Se   34      6.638003     15.329806      0.500000   6.0000  78.9600
    181    1 W    74      8.297500     14.371692      2.179276  14.0000 183.8400
    182    2 Se   34      9.957003     15.329806      3.858553   6.0000  78.9600
    183    2 Se   34      9.957003     15.329806      0.500000   6.0000  78.9600
    184    1 W    74     11.616500     14.371692      2.179276  14.0000 183.8400
    185    2 Se   34     13.276003     15.329806      3.858553   6.0000  78.9600
    186    2 Se   34     13.276003     15.329806      0.500000   6.0000  78.9600
    187    1 W    74     14.935500     14.371692      2.179276  14.0000 183.8400
    188    2 Se   34     16.595003     15.329806      3.858553   6.0000  78.9600
    189    2 Se   34     16.595003     15.329806      0.500000   6.0000  78.9600
    190    1 W    74     18.254500     14.371692      2.179276  14.0000 183.8400
    191    2 Se   34     19.914003     15.329806      3.858553   6.0000  78.9600
    192    2 Se   34     19.914003     15.329806      0.500000   6.0000  78.9600
    193    1 W    74     21.573500     14.371692      2.179276  14.0000 183.8400
    194    2 Se   34     23.233003     15.329806      3.858553   6.0000  78.9600
    195    2 Se   34     23.233003     15.329806      0.500000   6.0000  78.9600
    196    1 W    74     24.892500     14.371692      2.179276  14.0000 183.8400
    197    2 Se   34     26.552003     15.329806      3.858553   6.0000  78.9600
    198    2 Se   34     26.552003     15.329806      0.500000   6.0000  78.9600
    199    1 W    74     -9.957000     17.246030      2.179276  14.0000 183.8400
    200    2 Se   34     -8.297497     18.204145      3.858553   6.0000  78.9600
    201    2 Se   34     -8.297497     18.204145      0.500000   6.0000  78.9600
    202    1 W    74     -6.638000     17.246030      2.179276  14.0000 183.8400
    203    2 Se   34     -4.978497     18.204145      3.858553   6.0000  78.9600
    204    2 Se   34     -4.978497     18.204145      0.500000   6.0000  78.9600
    205    1 W    74     -3.319000     17.246030      2.179276  14.0000 183.8400
    206    2 Se   34     -1.659497     18.204145      3.858553   6.0000  78.9600
    207    2 Se   34     -1.659497     18.204145      0.500000   6.0000  78.9600
    208    1 W    74      0.000000     17.246030      2.179276  14.0000 183.8400
    209    2 Se   34      1.659503     18.204145      3.858553   6.0000  78.9600
    210    2 Se   34      1.659503     18.204145      0.500000   6.0000  78.9600
    211    1 W    74      3.319000     17.246030      2.179276  14.0000 183.8400
    212    2 Se   34      4.978503     18.204145      3.858553   6.0000  78.9600
    213    2 Se   34      4.978503     18.204145      0.500000   6.0000  78.9600
    214    1 W    74      6.638000     17.246030      2.179276  14.0000 183.8400
    215    2 Se   34      8.297503     18.204145      3.858553   6.0000  78.9600
[...]
 dbcsr_zero                       33517 12.0     1.33     1.55     1.33     1.55
 fft_wrap_pw1pw2_90                 188 11.5     0.07     0.07     1.42     1.53
 dbt_pgrid_create_expert            648 12.3     0.00     0.03     1.10     1.47
 mp_sendrecv_dv                  225412 10.0     1.37     1.43     1.37     1.43
 scf_post_calculation_gpw             1  3.0     0.00     0.00     1.34     1.39
 write_available_results              1  4.0     0.00     0.00     1.34     1.39
 write_mo_free_results                1  5.0     0.00     0.00     1.34     1.39
 fft_wrap_pw1pw2_30                 188 11.5     0.06     0.07     1.37     1.38
 multiply_cannon_multrec           5700 10.9     0.76     1.34     0.76     1.34
 dbcsr_finalize                   20706 12.4     0.18     0.33     1.04     1.29
 fft_wrap_pw1pw2_10                 188 11.5     0.06     0.07     1.27     1.28
 dbt_nd_mp_comm                     241 10.8     0.00     0.00     0.85     1.25
 fft_wrap_pw1pw2_250                469 10.2     0.06     0.07     1.03     1.21
 mp_alltoall_z22v                  1502 13.7     0.93     1.17     0.93     1.17
 multiply_cannon_metrocomm3        5700 10.9     0.01     0.01     0.47     1.17
 compute_2c_integrals                 1  7.0     0.00     0.00     1.13     1.13
 allocate_matrices_gw_im_time         1  7.0     0.00     0.00     1.11     1.11
 get_tensor_3c_overl_int_gw           1  8.0     0.91     1.06     1.10     1.11
 fft3d_pb                           469 11.2     0.09     0.13     0.91     1.10
 reorder_mat_L                        2  8.0     0.00     0.00     1.04     1.04
 create_occ_virt_mo_coeffs            1  8.0     0.97     1.03     0.97     1.03
 fill_fm_L_from_L_loc_non_block       1  8.0     0.00     0.00     0.72     0.98
 compute_Wc_real_space_tau_GW_1     260 10.0     0.29     0.60     0.66     0.98
 fill_fm_L_from_L_loc_non_block       1  9.0     0.69     0.95     0.69     0.95
 create_qs_kind_set                   1  2.0     0.00     0.00     0.81     0.88
 read_qs_kind                         2  3.0     0.12     0.65     0.81     0.88
 dbt_copy_nocomm                     11 11.0     0.41     0.53     0.67     0.86
 cp_cfm_scale_and_add_fm           2180  9.9     0.73     0.83     0.73     0.83
 dbt_distribution_new_expert        622 11.4     0.01     0.01     0.77     0.79
 yz_to_xz                           282 15.0     0.03     0.04     0.69     0.77
 parser_read_line                 66350  4.0     0.01     0.01     0.69     0.77
 parser_read_line_low                73  5.0     0.00     0.21     0.68     0.76
 broadcast_input_information         73  6.0     0.01     0.01     0.68     0.76
 self_consistency_check              93  5.0     0.00     0.00     0.50     0.72
 cp_sm_mix                           93  6.0     0.00     0.00     0.50     0.72
 mp_max_d                            95  6.9     0.50     0.72     0.50     0.72
 dbcsr_merge_all                   7638 13.1     0.10     0.14     0.62     0.72
 density_matrix_from_kp_to_mic       42 10.0     0.14     0.16     0.67     0.71
 xz_to_yz                           282 12.0     0.01     0.03     0.63     0.69
 mp_sum_d                          1349  5.8     0.50     0.67     0.50     0.67
 dbcsr_filter_anytype              4100 10.7     0.10     0.21     0.45     0.64
 multiply_cannon_metrocomm1        5700 10.9     0.00     0.00     0.13     0.64
 rs_pw_transfer_PW2RS_10             94 12.0     0.15     0.17     0.60     0.64
 gspace_mixing                       92  5.0     0.02     0.02     0.62     0.62
 rs_pw_transfer_RS2PW_10             94  9.0     0.17     0.18     0.58     0.61
 build_2c_integrals                   3  8.0     0.04     0.32     0.28     0.56
 mp_bcast_am_src                     73  7.0     0.44     0.56     0.45     0.56
 cp_fm_scale_and_add               2600 11.0     0.45     0.53     0.45     0.53
 init_scf_run                         1  3.0     0.00     0.00     0.52     0.52
 calculate_hirshfeld_normalizat       1  6.0     0.42     0.47     0.51     0.51
 hirshfeld_integration                1  6.0     0.42     0.45     0.49     0.49
 rs_grid_zero                       191 12.9     0.47     0.48     0.47     0.48
 mp_sum_dm                           94  7.0     0.41     0.47     0.41     0.47
 mp_bcast_dm                          2  8.0     0.42     0.47     0.42     0.47
 alloc_block_3c                       3  7.0     0.06     0.06     0.41     0.45
 scf_env_initial_rho_setup            1  4.0     0.00     0.00     0.44     0.44
 cube_transpose_2                   471 12.6     0.01     0.01     0.29     0.44
 cp_fm_create                      4698 10.4     0.38     0.44     0.38     0.44
 mp_bcast_i_src                     292  7.0     0.22     0.42     0.22     0.42
 qs_energies_init_hamiltonians        1  3.0     0.00     0.01     0.41     0.42
 compute_vec_Sigma_x_minus_vxc_       1  4.0     0.00     0.00     0.41     0.41
 cp_fm_cholesky_decompose             3  5.7     0.40     0.40     0.40     0.40
 dbt_split_blocks_generic            50 10.8     0.08     0.10     0.38     0.40
 mp_isendrecv_dv                 225412 13.0     0.18     0.40     0.18     0.40
 broyden_mixing                      92  6.0     0.27     0.31     0.37     0.39
 cp_fm_triangular_invert              2  6.5     0.38     0.39     0.38     0.39
 mulliken_population_analysis         1  6.0     0.00     0.00     0.34     0.38
 dbt_tas_merge_alltoall             212 14.8     0.00     0.00     0.32     0.38
 cube_transpose_3                   280 11.3     0.01     0.01     0.27     0.37
 mp_sum_iv                           47  8.0     0.32     0.36     0.32     0.36
 copy_dbcsr_to_fm_bc               3926 11.4     0.29     0.34     0.31     0.35
 invert_mat                           1  8.0     0.00     0.00     0.34     0.34
 tree_to_linear_d                  4194 14.3     0.29     0.34     0.29     0.34
 dbt_reserve_blocks_template         11 12.0     0.00     0.00     0.26     0.34
 cp_fm_upper_to_full                188  8.0     0.24     0.33     0.24     0.33
 dbt_buffer_get_index           2348400 16.8     0.26     0.31     0.26     0.31
 cholesky_decomp                      1  8.0     0.00     0.00     0.30     0.30
 dbt_create_new                     311 10.9     0.01     0.01     0.29     0.30
 cp_fm_set_all                     4371 10.8     0.28     0.29     0.28     0.29
 dbt_tas_reshape_get_coord         1028 16.5     0.18     0.29     0.18     0.29
 cube_transpose_1                   562 13.2     0.01     0.01     0.22     0.29
 qs_env_update_s_mstruct              1  4.0     0.00     0.00     0.24     0.28
 mp_recv_dv                        1300  8.0     0.00     0.27     0.00     0.27
 cube_transpose_4                   189 13.5     0.01     0.01     0.19     0.27
 dbcsr_reserve_all_blocks          4695 10.6     0.01     0.02     0.22     0.26
 cp_fm_to_cfm                      2880 10.5     0.20     0.26     0.20     0.26
 dbcsr_reserve_blocks              4931 11.6     0.21     0.25     0.22     0.26
 make_m2s                           190  8.9     0.01     0.01     0.24     0.25
 mp_isend_lm2                    405228 18.5     0.14     0.23     0.14     0.23
 dbcsr_create_new                 37037 11.5     0.13     0.15     0.19     0.21
 make_images                        190  9.9     0.01     0.02     0.20     0.21
 dbcsr_add_wm_from_matrix          2877 12.8     0.07     0.16     0.12     0.20
 qs_vxc_create                       94  8.0     0.00     0.00     0.14     0.20
 xc_vxc_pw_create                    93  9.0     0.02     0.02     0.14     0.20
 dbt_tas_create_new                3269 15.3     0.16     0.19     0.16     0.19
 dbcsr_data_copy_aa2               4408 14.2     0.15     0.19     0.15     0.19
 build_core_hamiltonian_matrix        1  4.0     0.00     0.01     0.16     0.19
 calculate_rho_core                   1  5.0     0.06     0.07     0.14     0.18
 dbt_split_copyback                  25 10.8     0.08     0.09     0.14     0.18
 mp_comm_free                     23997 13.9     0.15     0.17     0.15     0.17
 dbm_scale                         1004 14.9     0.10     0.17     0.10     0.17
 mp_irecv_dv                     499980 16.6     0.12     0.17     0.12     0.17
 cp_fm_redistribute_start            94  8.0     0.00     0.00     0.09     0.16
 build_core_ppnl                      1  5.0     0.13     0.15     0.13     0.15
 frequency_and_kpoint_integrati     260  9.0     0.03     0.04     0.13     0.15
 mp_bcast_i                        3745 16.6     0.03     0.14     0.03     0.14
 mp_isend_dm3                     14372 11.5     0.08     0.14     0.08     0.14
 mp_sum_dm3                         193  8.0     0.13     0.14     0.13     0.14
 compute_2c_integrals_loop_lm         1  8.0     0.00     0.00     0.09     0.14
 mp2_eri_2c_integrate                 1  9.0     0.02     0.03     0.09     0.14
 dbt_create_template               1996 12.0     0.08     0.13     0.08     0.13
 make_images_data                   190 10.9     0.00     0.00     0.09     0.13
 mp_allgather_i34                    95  9.9     0.09     0.12     0.09     0.12
 make_images_sizes                  190 10.9     0.00     0.00     0.08     0.12
 mp_alltoall_i44                    190 11.9     0.08     0.12     0.08     0.12
 build_3c_integrals_put_dbcsr      1266  7.0     0.07     0.12     0.07     0.12
 multiply_cannon_metrocomm2        5415 10.9     0.01     0.01     0.07     0.12
 dbcsr_fill_wm_from_matrix         2877 13.8     0.04     0.11     0.05     0.12
 mp_bcast_b_src                     189  7.5     0.03     0.11     0.03     0.11
 integrate_set_2c                 56628 10.0     0.05     0.08     0.07     0.11
 cp_cfm_to_cfm_columns              129  9.0     0.08     0.11     0.08     0.11
 alloc_mat_set                       63 10.0     0.00     0.00     0.10     0.11
 allocate_blocks_of_v_kp              2 10.0     0.08     0.11     0.08     0.11
 cp_cfm_to_fm                      1589  9.8     0.09     0.11     0.09     0.11
 dbcsr_copy                        4039 10.5     0.08     0.10     0.09     0.10
 qs_init_subsys                       1  2.0     0.00     0.04     0.10     0.10
 dbcsr_iterator_start             91231 11.7     0.06     0.07     0.10     0.10
 cp_cfm_scale_and_add               260 12.0     0.08     0.10     0.08     0.10
 qs_create_task_list                  1  5.0     0.00     0.01     0.09     0.10
 generate_qs_task_list                1  6.0     0.00     0.00     0.09     0.10
 qs_env_setup                         1  3.0     0.00     0.01     0.09     0.09
 qs_env_rebuild_pw_env                2  3.5     0.00     0.00     0.09     0.09
 pw_env_rebuild                       1  5.0     0.00     0.01     0.09     0.09
 distribute_tasks                     1  7.0     0.00     0.00     0.09     0.09
 cp_fm_triangular_multiply            3  5.0     0.09     0.09     0.09     0.09
 cp_fm_release                     4698 10.3     0.01     0.09     0.01     0.09
 create_2c_tensor                    24  8.2     0.02     0.02     0.08     0.09
 mp_sum_i                          1077 15.8     0.08     0.08     0.08     0.08
 quick_finalize                   11532 13.7     0.03     0.03     0.08     0.08
 mp_isend_im2                    176472 13.6     0.07     0.08     0.07     0.08
 mp_irecv_lm2                    312622 18.5     0.07     0.08     0.07     0.08
 dbcsr_data_release              251187 13.1     0.07     0.08     0.07     0.08
 dbcsr_destroy                    26135 11.2     0.03     0.03     0.07     0.08
 dbcsr_iterator_stop              91231 11.7     0.06     0.06     0.07     0.08
 dbcsr_sort_data                   3154 13.9     0.05     0.08     0.05     0.08
 dbcsr_sort_indices               31596 13.7     0.06     0.07     0.06     0.07
 get_mat_cell_T_from_mat_gamma       37  9.6     0.04     0.05     0.06     0.07
 dbcsr_work_create                19452 12.7     0.03     0.04     0.06     0.07
 dbcsr_data_new                  128094 13.0     0.06     0.07     0.06     0.07
 get_sub_para_kp                      1  8.0     0.00     0.00     0.06     0.06
 pw_scatter_p                       562 12.2     0.04     0.06     0.04     0.06
 xc_rho_set_and_dset_create          93 10.0     0.00     0.00     0.05     0.06
 mp_maxloc_dv                      1497  1.0     0.06     0.06     0.06     0.06
 kpoint_initialize_mos                3  8.0     0.00     0.00     0.04     0.06
 dbt_permute_index                 2686 12.8     0.05     0.06     0.06     0.06
 ab_contract                     116084  9.9     0.04     0.06     0.04     0.06
 cp_cfm_column_scale                312 10.7     0.06     0.06     0.06     0.06
 xc_functional_eval                  93 11.0     0.05     0.06     0.05     0.06
 dbt_align_index                   2295 12.0     0.00     0.01     0.05     0.06
 dbcsr_make_index_exist           37037 12.5     0.05     0.06     0.05     0.06
 dbcsr_dot_sd                       187  8.0     0.01     0.01     0.05     0.06
 get_minimax_grid                     1  7.0     0.00     0.01     0.03     0.05
 print_and_update_for_ev_sc          64  8.0     0.00     0.05     0.00     0.05
 pw_poisson_solve                    94  8.0     0.00     0.01     0.05     0.05
 mp_cart_get                      24009 15.9     0.01     0.05     0.01     0.05
 mp_irecv_im2                    190047 13.6     0.04     0.05     0.04     0.05
 create_local_tasks                   1  8.0     0.00     0.00     0.05     0.05
 mp_alltoall_l11v                     1  9.0     0.05     0.05     0.05     0.05
 copy_fm_to_dbcsr_bc                267  9.6     0.02     0.02     0.04     0.04
 calculate_first_density_matrix       1  5.0     0.00     0.01     0.04     0.04
 load_balance_distributed             2  8.0     0.00     0.00     0.04     0.04
 calculate_atomic_block_dm            1  6.0     0.00     0.02     0.04     0.04
 transpose_index_local             7542 11.8     0.01     0.01     0.04     0.04
 create_3c_tensor                     6  7.5     0.00     0.01     0.04     0.04
 pw_integral_ab                      94  9.0     0.02     0.02     0.04     0.04
 mp_irecv_dm3                     14372 11.5     0.02     0.04     0.02     0.04
 get_current_loads                   12  9.0     0.00     0.00     0.02     0.04
 mp_bcast_iv                       2929 11.4     0.03     0.04     0.03     0.04
 mp_comm_size                     32678 15.6     0.01     0.04     0.01     0.04
 mp_alltoall_l                       13  9.9     0.02     0.04     0.02     0.04
 pw_gather_p                        471 11.6     0.02     0.04     0.02     0.04
 kpoint_initialize_mo_set             3  8.0     0.01     0.01     0.03     0.04
 compute_load_list                    4  9.0     0.00     0.00     0.02     0.04
 dealloc_im_time                      1  7.0     0.00     0.01     0.03     0.04
 dbcsr_iterator_seek              91231 12.7     0.03     0.04     0.03     0.04
 dbcsr_work_destroy_all           19452 13.4     0.02     0.03     0.03     0.03
 get_fft_scratch                   1034 12.9     0.01     0.02     0.02     0.03
 pw_grid_setup                        4  6.0     0.00     0.00     0.03     0.03
 pw_grid_setup_internal               4  7.0     0.00     0.00     0.03     0.03
 compute_mat_P_omega_Fourier_tr      10  9.0     0.00     0.00     0.03     0.03
 optimize_load_list                   2  9.0     0.00     0.00     0.02     0.03
 cp_fm_to_fm_matrix                 300  8.9     0.03     0.03     0.03     0.03
 topology_control                     1  2.0     0.00     0.01     0.00     0.03
 dbcsr_make_dbcsr_index           28685 13.8     0.03     0.03     0.03     0.03
 Q_trace_and_add_unit_matrix         10  8.0     0.00     0.00     0.02     0.03
 mp_sum_partial_im                    2 10.0     0.01     0.03     0.01     0.03
 mp_bcast_av                        749  1.0     0.01     0.01     0.02     0.03
 dbcsr_add_d                        102  9.9     0.00     0.00     0.02     0.02
 dbcsr_add_anytype                  102 10.9     0.01     0.02     0.02     0.02
 mp_comm_rank                     32678 15.6     0.01     0.02     0.01     0.02
 multiply_cannon_metrocomm4        5605 10.9     0.01     0.01     0.02     0.02
 merge_index                       7638 14.1     0.02     0.02     0.02     0.02
 dbt_copy_tensor_to_matrix          208 10.0     0.01     0.01     0.02     0.02
 mp_bcast_im                       1350 12.1     0.02     0.02     0.02     0.02
 grid_free_task_list                  1  2.0     0.01     0.02     0.01     0.02
 dbcsr_crop_matrix                  376 10.0     0.00     0.00     0.02     0.02
 set_blocks_to_matrix_v_kp            2 10.0     0.02     0.02     0.02     0.02
 build_overlap_matrix_low             1  5.0     0.01     0.02     0.01     0.02
 deallocate_blocks_of_v_L             4 10.0     0.01     0.02     0.01     0.02
 mp_max_l                           310 13.1     0.02     0.02     0.02     0.02
 mp_dims_create                    7738 14.8     0.01     0.02     0.01     0.02
 cp_fm_cleanup_copy_general         675 11.1     0.00     0.00     0.01     0.02
 connectivity_control                 1  3.0     0.00     0.00     0.00     0.02
 evaluate_core_matrix_traces         93  6.0     0.00     0.00     0.02     0.02
 dbcsr_get_data_size_used         19072 13.5     0.01     0.02     0.01     0.02
 dbcsr_copy_submatrix               376 11.0     0.00     0.00     0.01     0.02
 external_control                    94  5.0     0.00     0.01     0.01     0.02
 calculate_ptrace_kp                186  7.0     0.00     0.00     0.02     0.02
 get_l_sq_wghts_cos_tf_t_to_w         1  8.0     0.01     0.02     0.01     0.02
 pw_copy                            844 10.4     0.01     0.02     0.01     0.02
 restraint_control                    1  2.0     0.00     0.00     0.01     0.02
 build_core_ppl                       1  5.0     0.01     0.02     0.01     0.02
 get_l_sq_wghts_sin_tf_t_to_w         1  8.0     0.01     0.02     0.01     0.02
 pw_grid_remap                        4  8.0     0.00     0.00     0.01     0.02
 get_l_sq_wghts_cos_tf_w_to_t         1  8.0     0.01     0.02     0.01     0.02
 dbcsr_make_images_dense            188 10.0     0.00     0.00     0.01     0.02
 topology_generate_bond               1  4.0     0.00     0.00     0.00     0.01
 mp_isend_zv                      38728 14.5     0.00     0.01     0.00     0.01
 dbcsr_distribution_new            4767 11.1     0.01     0.01     0.01     0.01
 distribute_molecules_1d              3  5.3     0.00     0.01     0.00     0.01
 kpoint_env_initialize                3  8.0     0.00     0.00     0.01     0.01
 calculate_atom                       2  7.0     0.00     0.00     0.00     0.01
 calculate_atom_restricted            2  8.0     0.00     0.01     0.00     0.01
 fill_fm_L_from_L_loc_non_block       1  9.0     0.00     0.00     0.01     0.01
 dbcsr_switch_data_area           12568 14.4     0.01     0.01     0.01     0.01
 communicate_buffer                   1 10.0     0.00     0.00     0.01     0.01
 mp_sum_im3                           5  8.8     0.01     0.01     0.01     0.01
 -------------------------------------------------------------------------------

 The number of warnings for this run is : 3
 
 -------------------------------------------------------------------------------
  **** **** ******  **  PROGRAM ENDED AT                 2023-06-02 21:36:05.019
 ***** ** ***  *** **   PROGRAM RAN ON                                  n2cn0301
 **    ****   ******    PROGRAM RAN BY                                  eprop2d1
 ***** **    ** ** **   PROGRAM PROCESS ID                               2031153
  **** **  *******  **  PROGRAM STOPPED IN /scratch/hpc-prf-eprop2d/eprop2d1_Jan
                                           /02_MoS2_MoSe2_WS2_WSe2/4_WSe2/11x11_
                                           PBE/5_reg_RI_1e-2_TZVP_big_RI
