 DBCSR| CPU Multiplication driver                                           XSMM (U)
 DBCSR| Multrec recursion limit                                              512 (U)
 DBCSR| Multiplication stack size                                           1000 (D)
 DBCSR| Maximum elements for images                                    UNLIMITED (U)
 DBCSR| Multiplicative factor virtual images                                   1 (U)
 DBCSR| Use multiplication densification                                       T (D)
 DBCSR| Multiplication size stacks                                             3 (U)
 DBCSR| Use memory pool for CPU allocation                                     F (U)
 DBCSR| Number of 3D layers                                               SINGLE (U)
 DBCSR| Use MPI memory allocation                                              F (U)
 DBCSR| Use RMA algorithm                                                      F (U)
 DBCSR| Use Communication thread                                               T (U)
 DBCSR| Communication thread load                                             75 (D)
 DBCSR| MPI: My process id                                                     0
 DBCSR| MPI: Number of processes                                            1280
 DBCSR| OMP: Current number of threads                                         4
 DBCSR| OMP: Max number of threads                                             4
 DBCSR| Split modifier for TAS multiplication algorithm                  1.0E+00 (U)


  **** **** ******  **  PROGRAM STARTED AT               2023-06-17 14:40:19.219
 ***** ** ***  *** **   PROGRAM STARTED ON                              n2cn0377
 **    ****   ******    PROGRAM STARTED BY                              eprop2d1
 ***** **    ** ** **   PROGRAM PROCESS ID                               1381642
  **** **  *******  **  PROGRAM STARTED IN /scratch/hpc-prf-eprop2d/eprop2d1_Jan
                                           /02_MoS2_MoSe2_WS2_WSe2/2_MoSe2/10x10
                                           _PBE/01_reg_RI_1e-2_TZV2P_gap_standar
                                           d_RI/2_30_minimax/2_regularization_1.
                                           0E-6

 CP2K| version string:                 CP2K version 2023.1 (Development Version)
 CP2K| source code revision number:                                  git:31c55a3
 CP2K| cp2kflags: omp libint fftw3 libxc elpa parallel scalapack cosma xsmm plum
 CP2K|            ed2 spglib sirius libvori libbqb libvdwxc
 CP2K| is freely available from                            https://www.cp2k.org/
 CP2K| Program compiled at                         Sat Jun 10 15:44:41 CEST 2023
 CP2K| Program compiled on                                              n2login4
 CP2K| Program compiled for                                                local
 CP2K| Data directory path    /opt/software/pc2/EB-SW/software/CP2K/2023.1-foss-
 CP2K| Input file name                                                    GW.inp

 GLOBAL| Force Environment number                                              1
 GLOBAL| Basis set file name                                        BASIS_MOLOPT
 GLOBAL| Potential file name                                      GTH_POTENTIALS
 GLOBAL| MM Potential file name                                     MM_POTENTIAL
 GLOBAL| Coordinate file name                                      __STD_INPUT__
 GLOBAL| Method name                                                        CP2K
 GLOBAL| Project name                                                       MoS2
 GLOBAL| Run type                                                         ENERGY
 GLOBAL| FFT library                                                       FFTW3
 GLOBAL| Diagonalization library                                            ELPA
 GLOBAL| DGEMM library                                                      BLAS
 GLOBAL| Minimum number of eigenvectors for ELPA usage                        16
 GLOBAL| Orthonormality check for eigenvectors                          DISABLED
 GLOBAL| Matrix multiplication library                                     COSMA
 GLOBAL| All-to-all communication in single precision                          F
 GLOBAL| FFTs using library dependent lengths                                  F
 GLOBAL| Grid backend                                                       AUTO
 GLOBAL| Global print level                                               MEDIUM
 GLOBAL| MPI I/O enabled                                                       T
 GLOBAL| Total number of message passing processes                          1280
 GLOBAL| Number of threads for this process                                    4
 GLOBAL| This output is from process                                           0
 GLOBAL| Stack size for threads created by OpenMP (OMP_STACKSIZE)        default
 GLOBAL| CPU model name                          AMD EPYC 7763 64-Core Processor
 GLOBAL| CPUID                                                              1002
 GLOBAL| Compiled for CPUID                                                    0

 *** HINT in environment.F:886 :: The compiler target flags (generic) used ***
 *** to build this binary cannot exploit all extensions of this CPU model  ***
 *** (x86_avx2). Consider compiler target flags as part of FCFLAGS and     ***
 *** CFLAGS (ARCH file).                                                   ***


 MEMORY| system memory details [Kb]
 MEMORY|                        rank 0           min           max       average
 MEMORY| MemTotal            263914148     263914148     263914156     263914150
 MEMORY| MemFree             240129788     224036380     251335948     242594420
 MEMORY| Buffers                311596         61920        338248        216049
 MEMORY| Cached                7111564       3820756      18195532       6136171
 MEMORY| Slab                  8815492       1645672      13669108       7664590
 MEMORY| SReclaimable           301264        189104        594904        292526
 MEMORY| MemLikelyFree       247854212     242786992     256098204     249239167


 *** Fundamental physical constants (SI units) ***

 *** Literature: B. J. Mohr and B. N. Taylor,
 ***             CODATA recommended values of the fundamental physical
 ***             constants: 2006, Web Version 5.1
 ***             http://physics.nist.gov/constants

 Speed of light in vacuum [m/s]                             2.99792458000000E+08
 Magnetic constant or permeability of vacuum [N/A**2]       1.25663706143592E-06
 Electric constant or permittivity of vacuum [F/m]          8.85418781762039E-12
 Planck constant (h) [J*s]                                  6.62606896000000E-34
 Planck constant (h-bar) [J*s]                              1.05457162825177E-34
 Elementary charge [C]                                      1.60217648700000E-19
 Electron mass [kg]                                         9.10938215000000E-31
 Electron g factor [ ]                                     -2.00231930436220E+00
 Proton mass [kg]                                           1.67262163700000E-27
 Fine-structure constant                                    7.29735253760000E-03
 Rydberg constant [1/m]                                     1.09737315685270E+07
 Avogadro constant [1/mol]                                  6.02214179000000E+23
 Boltzmann constant [J/K]                                   1.38065040000000E-23
 Atomic mass unit [kg]                                      1.66053878200000E-27
 Bohr radius [m]                                            5.29177208590000E-11

 *** Conversion factors ***

 [u] -> [a.u.]                                              1.82288848426455E+03
 [Angstrom] -> [Bohr] = [a.u.]                              1.88972613288564E+00
 [a.u.] = [Bohr] -> [Angstrom]                              5.29177208590000E-01
 [a.u.] -> [s]                                              2.41888432650478E-17
 [a.u.] -> [fs]                                             2.41888432650478E-02
 [a.u.] -> [J]                                              4.35974393937059E-18
 [a.u.] -> [N]                                              8.23872205491840E-08
 [a.u.] -> [K]                                              3.15774647902944E+05
 [a.u.] -> [kJ/mol]                                         2.62549961709828E+03
 [a.u.] -> [kcal/mol]                                       6.27509468713739E+02
 [a.u.] -> [Pa]                                             2.94210107994716E+13
 [a.u.] -> [bar]                                            2.94210107994716E+08
 [a.u.] -> [atm]                                            2.90362800883016E+08
 [a.u.] -> [eV]                                             2.72113838565563E+01
 [a.u.] -> [Hz]                                             6.57968392072181E+15
 [a.u.] -> [1/cm] (wave numbers)                            2.19474631370540E+05
 [a.u./Bohr**2] -> [1/cm]                                   5.14048714338585E+03
 

 CELL_TOP| Volume [angstrom^3]:                                     14317.500000
 CELL_TOP| Vector a [angstrom    33.200     0.000     0.000   |a| =    33.200000
 CELL_TOP| Vector b [angstrom   -16.600    28.750     0.000   |b| =    33.198230
 CELL_TOP| Vector c [angstrom     0.000     0.000    15.000   |c| =    15.000000
 CELL_TOP| Angle (b,c), alpha [degree]:                                90.000000
 CELL_TOP| Angle (a,c), beta  [degree]:                                90.000000
 CELL_TOP| Angle (a,b), gamma [degree]:                               120.001763
 CELL_TOP| Numerically orthorhombic:                                          NO
 CELL_TOP| Periodicity                                                        XY

 CELL_UC| Volume [angstrom^3]:                                        143.175000
 CELL_UC| Vector a [angstrom]     3.320     0.000     0.000   |a| =     3.320000
 CELL_UC| Vector b [angstrom]    -1.660     2.875     0.000   |b| =     3.319823
 CELL_UC| Vector c [angstrom]     0.000     0.000    15.000   |c| =    15.000000
 CELL_UC| Angle (b,c), alpha [degree]:                                 90.000000
 CELL_UC| Angle (a,c), beta  [degree]:                                 90.000000
 CELL_UC| Angle (a,b), gamma [degree]:                                120.001763
 CELL_UC| Numerically orthorhombic:                                           NO
 CELL_UC| Periodicity                                                         XY

 GENERATE|  Preliminary Number of Bonds generated:                             0
 GENERATE|  Achieved consistency in connectivity generation.

 CELL| Volume [angstrom^3]:                                         14317.500000
 CELL| Vector a [angstrom]:      33.200     0.000     0.000   |a| =    33.200000
 CELL| Vector b [angstrom]:     -16.600    28.750     0.000   |b| =    33.198230
 CELL| Vector c [angstrom]:       0.000     0.000    15.000   |c| =    15.000000
 CELL| Angle (b,c), alpha [degree]:                                    90.000000
 CELL| Angle (a,c), beta  [degree]:                                    90.000000
 CELL| Angle (a,b), gamma [degree]:                                   120.001763
 CELL| Numerically orthorhombic:                                              NO
 CELL| Periodicity                                                            XY

 CELL_REF| Volume [angstrom^3]:                                     14317.500000
 CELL_REF| Vector a [angstrom    33.200     0.000     0.000   |a| =    33.200000
 CELL_REF| Vector b [angstrom   -16.600    28.750     0.000   |b| =    33.198230
 CELL_REF| Vector c [angstrom     0.000     0.000    15.000   |c| =    15.000000
 CELL_REF| Angle (b,c), alpha [degree]:                                90.000000
 CELL_REF| Angle (a,c), beta  [degree]:                                90.000000
 CELL_REF| Angle (a,b), gamma [degree]:                               120.001763
 CELL_REF| Numerically orthorhombic:                                          NO
 CELL_REF| Periodicity                                                        XY

 *******************************************************************************
 *******************************************************************************
 **                                                                           **
 **     #####                         ##              ##                      **
 **    ##   ##            ##          ##              ##                      **
 **   ##     ##                       ##            ######                    **
 **   ##     ##  ##   ##  ##   #####  ##  ##   ####   ##    #####    #####    **
 **   ##     ##  ##   ##  ##  ##      ## ##   ##      ##   ##   ##  ##   ##   **
 **   ##  ## ##  ##   ##  ##  ##      ####     ###    ##   ######   ######    **
 **    ##  ###   ##   ##  ##  ##      ## ##      ##   ##   ##       ##        **
 **     #######   #####   ##   #####  ##  ##  ####    ##    #####   ##        **
 **           ##                                                    ##        **
 **                                                                           **
 **                                                ... make the atoms dance   **
 **                                                                           **
 **            Copyright (C) by CP2K developers group (2000-2023)             **
 **                      J. Chem. Phys. 152, 194103 (2020)                    **
 **                                                                           **
 *******************************************************************************

 DFT| Spin restricted Kohn-Sham (RKS) calculation                            RKS
 DFT| Multiplicity                                                             1
 DFT| Number of spin states                                                    1
 DFT| Charge                                                                   0
 DFT| Self-interaction correction (SIC)                                       NO
 DFT| Cutoffs: density                                              1.000000E-10
 DFT|          gradient                                             1.000000E-10
 DFT|          tau                                                  1.000000E-10
 DFT|          cutoff_smoothing_range                               0.000000E+00
 DFT| XC density smoothing                                                  NONE
 DFT| XC derivatives                                                          PW

 FUNCTIONAL| PADE:
 FUNCTIONAL| S. Goedecker, M. Teter and J. Hutter, Phys. Rev. B 54, 1703 (1996) 


 QS| Method:                                                                 GPW
 QS| Density plane wave grid type                        NON-SPHERICAL FULLSPACE
 QS| Number of grid levels:                                                    4
 QS| Density cutoff [a.u.]:                                                250.0
 QS| Multi grid cutoff [a.u.]: 1) grid level                               250.0
 QS|                           2) grid level                                83.3
 QS|                           3) grid level                                27.8
 QS|                           4) grid level                                 9.3
 QS| Grid level progression factor:                                          3.0
 QS| Relative density cutoff [a.u.]:                                        50.0
 QS| Interaction thresholds: eps_pgf_orb:                                1.0E-40
 QS|                         eps_filter_matrix:                          0.0E+00
 QS|                         eps_core_charge:                            1.0E-42
 QS|                         eps_rho_gspace:                             1.0E-40
 QS|                         eps_rho_rspace:                             1.0E-40
 QS|                         eps_gvg_rspace:                             1.0E-20
 QS|                         eps_ppl:                                    1.0E-02
 QS|                         eps_ppnl:                                   1.0E-22


 ATOMIC KIND INFORMATION

  1. Atomic kind: Mo                                    Number of atoms:     100

     Orbital Basis Set                                       TZV2P-MOLOPT-SR-GTH

       Number of orbital shell sets:                                           1
       Number of orbital shells:                                              12
       Number of primitive Cartesian functions:                                7
       Number of Cartesian basis functions:                                   51
       Number of spherical basis functions:                                   42
       Norm type:                                                              2

       Normalised Cartesian orbitals:

                        Set   Shell   Orbital            Exponent    Coefficient

                          1       1    2s                2.540273      -1.321231
                                                         1.999996       0.386074
                                                         0.894040       0.632184
                                                         0.439257       0.196926
                                                         0.189498       0.017023
                                                         0.083802      -0.027705
                                                         0.052949      -0.026613

                          1       2    3s                2.540273       0.226721
                                                         1.999996      -0.073158
                                                         0.894040      -0.053559
                                                         0.439257       0.091291
                                                         0.189498      -0.109922
                                                         0.083802      -0.065996
                                                         0.052949      -0.004390

                          1       3    4s                2.540273       0.151037
                                                         1.999996      -0.934259
                                                         0.894040       0.277268
                                                         0.439257      -0.018911
                                                         0.189498       0.203898
                                                         0.083802      -0.107599
                                                         0.052949       0.083646

                          1       4    5s                2.540273      -0.119990
                                                         1.999996       0.896807
                                                         0.894040       0.455473
                                                         0.439257      -0.443578
                                                         0.189498      -0.167165
                                                         0.083802      -0.001095
                                                         0.052949       0.077321

                          1       5    3px               2.540273       2.622682
                                                         1.999996      -2.341890
                                                         0.894040      -0.583031
                                                         0.439257      -0.176984
                                                         0.189498      -0.015780
                                                         0.083802      -0.000908
                                                         0.052949      -0.000447
                          1       5    3py               2.540273       2.622682
                                                         1.999996      -2.341890
                                                         0.894040      -0.583031
                                                         0.439257      -0.176984
                                                         0.189498      -0.015780
                                                         0.083802      -0.000908
                                                         0.052949      -0.000447
                          1       5    3pz               2.540273       2.622682
                                                         1.999996      -2.341890
                                                         0.894040      -0.583031
                                                         0.439257      -0.176984
                                                         0.189498      -0.015780
                                                         0.083802      -0.000908
                                                         0.052949      -0.000447

                          1       6    4px               2.540273      -0.260015
                                                         1.999996       0.590944
                                                         0.894040      -0.043681
                                                         0.439257      -0.117520
                                                         0.189498      -0.105390
                                                         0.083802      -0.009391
                                                         0.052949      -0.005803
                          1       6    4py               2.540273      -0.260015
                                                         1.999996       0.590944
                                                         0.894040      -0.043681
                                                         0.439257      -0.117520
                                                         0.189498      -0.105390
                                                         0.083802      -0.009391
                                                         0.052949      -0.005803
                          1       6    4pz               2.540273      -0.260015
                                                         1.999996       0.590944
                                                         0.894040      -0.043681
                                                         0.439257      -0.117520
                                                         0.189498      -0.105390
                                                         0.083802      -0.009391
                                                         0.052949      -0.005803

                          1       7    5px               2.540273      -0.353254
                                                         1.999996       0.905805
                                                         0.894040       0.246303
                                                         0.439257      -0.518036
                                                         0.189498       0.039707
                                                         0.083802      -0.012470
                                                         0.052949       0.039500
                          1       7    5py               2.540273      -0.353254
                                                         1.999996       0.905805
                                                         0.894040       0.246303
                                                         0.439257      -0.518036
                                                         0.189498       0.039707
                                                         0.083802      -0.012470
                                                         0.052949       0.039500
                          1       7    5pz               2.540273      -0.353254
                                                         1.999996       0.905805
                                                         0.894040       0.246303
                                                         0.439257      -0.518036
                                                         0.189498       0.039707
                                                         0.083802      -0.012470
                                                         0.052949       0.039500

                          1       8    4dx2              2.540273      -1.497042
                                                         1.999996       1.923448
                                                         0.894040       0.383738
                                                         0.439257       0.135280
                                                         0.189498       0.028294
                                                         0.083802       0.001439
                                                         0.052949       0.000783
                          1       8    4dxy              2.540273      -2.592953
                                                         1.999996       3.331510
                                                         0.894040       0.664653
                                                         0.439257       0.234311
                                                         0.189498       0.049007
                                                         0.083802       0.002493
                                                         0.052949       0.001357
                          1       8    4dxz              2.540273      -2.592953
                                                         1.999996       3.331510
                                                         0.894040       0.664653
                                                         0.439257       0.234311
                                                         0.189498       0.049007
                                                         0.083802       0.002493
                                                         0.052949       0.001357
                          1       8    4dy2              2.540273      -1.497042
                                                         1.999996       1.923448
                                                         0.894040       0.383738
                                                         0.439257       0.135280
                                                         0.189498       0.028294
                                                         0.083802       0.001439
                                                         0.052949       0.000783
                          1       8    4dyz              2.540273      -2.592953
                                                         1.999996       3.331510
                                                         0.894040       0.664653
                                                         0.439257       0.234311
                                                         0.189498       0.049007
                                                         0.083802       0.002493
                                                         0.052949       0.001357
                          1       8    4dz2              2.540273      -1.497042
                                                         1.999996       1.923448
                                                         0.894040       0.383738
                                                         0.439257       0.135280
                                                         0.189498       0.028294
                                                         0.083802       0.001439
                                                         0.052949       0.000783

                          1       9    5dx2              2.540273       0.864975
                                                         1.999996      -1.148376
                                                         0.894040      -0.357133
                                                         0.439257      -0.080387
                                                         0.189498       0.054574
                                                         0.083802       0.005397
                                                         0.052949       0.003242
                          1       9    5dxy              2.540273       1.498181
                                                         1.999996      -1.989045
                                                         0.894040      -0.618573
                                                         0.439257      -0.139234
                                                         0.189498       0.094525
                                                         0.083802       0.009348
                                                         0.052949       0.005615
                          1       9    5dxz              2.540273       1.498181
                                                         1.999996      -1.989045
                                                         0.894040      -0.618573
                                                         0.439257      -0.139234
                                                         0.189498       0.094525
                                                         0.083802       0.009348
                                                         0.052949       0.005615
                          1       9    5dy2              2.540273       0.864975
                                                         1.999996      -1.148376
                                                         0.894040      -0.357133
                                                         0.439257      -0.080387
                                                         0.189498       0.054574
                                                         0.083802       0.005397
                                                         0.052949       0.003242
                          1       9    5dyz              2.540273       1.498181
                                                         1.999996      -1.989045
                                                         0.894040      -0.618573
                                                         0.439257      -0.139234
                                                         0.189498       0.094525
                                                         0.083802       0.009348
                                                         0.052949       0.005615
                          1       9    5dz2              2.540273       0.864975
                                                         1.999996      -1.148376
                                                         0.894040      -0.357133
                                                         0.439257      -0.080387
                                                         0.189498       0.054574
                                                         0.083802       0.005397
                                                         0.052949       0.003242

                          1      10    6dx2              2.540273       1.432307
                                                         1.999996      -1.051013
                                                         0.894040       1.746108
                                                         0.439257      -0.345728
                                                         0.189498       0.011925
                                                         0.083802      -0.031871
                                                         0.052949       0.011210
                          1      10    6dxy              2.540273       2.480828
                                                         1.999996      -1.820408
                                                         0.894040       3.024348
                                                         0.439257      -0.598818
                                                         0.189498       0.020654
                                                         0.083802      -0.055202
                                                         0.052949       0.019417
                          1      10    6dxz              2.540273       2.480828
                                                         1.999996      -1.820408
                                                         0.894040       3.024348
                                                         0.439257      -0.598818
                                                         0.189498       0.020654
                                                         0.083802      -0.055202
                                                         0.052949       0.019417
                          1      10    6dy2              2.540273       1.432307
                                                         1.999996      -1.051013
                                                         0.894040       1.746108
                                                         0.439257      -0.345728
                                                         0.189498       0.011925
                                                         0.083802      -0.031871
                                                         0.052949       0.011210
                          1      10    6dyz              2.540273       2.480828
                                                         1.999996      -1.820408
                                                         0.894040       3.024348
                                                         0.439257      -0.598818
                                                         0.189498       0.020654
                                                         0.083802      -0.055202
                                                         0.052949       0.019417
                          1      10    6dz2              2.540273       1.432307
                                                         1.999996      -1.051013
                                                         0.894040       1.746108
                                                         0.439257      -0.345728
                                                         0.189498       0.011925
                                                         0.083802      -0.031871
                                                         0.052949       0.011210

                          1      11    5fx3              2.540273       0.878054
                                                         1.999996      -0.786839
                                                         0.894040      -0.419447
                                                         0.439257      -0.111386
                                                         0.189498      -0.007752
                                                         0.083802      -0.000849
                                                         0.052949       0.000161
                          1      11    5fx2y             2.540273       1.963389
                                                         1.999996      -1.759425
                                                         0.894040      -0.937912
                                                         0.439257      -0.249068
                                                         0.189498      -0.017335
                                                         0.083802      -0.001899
                                                         0.052949       0.000360
                          1      11    5fx2z             2.540273       1.963389
                                                         1.999996      -1.759425
                                                         0.894040      -0.937912
                                                         0.439257      -0.249068
                                                         0.189498      -0.017335
                                                         0.083802      -0.001899
                                                         0.052949       0.000360
                          1      11    5fxy2             2.540273       1.963389
                                                         1.999996      -1.759425
                                                         0.894040      -0.937912
                                                         0.439257      -0.249068
                                                         0.189498      -0.017335
                                                         0.083802      -0.001899
                                                         0.052949       0.000360
                          1      11    5fxyz             2.540273       3.400689
                                                         1.999996      -3.047414
                                                         0.894040      -1.624512
                                                         0.439257      -0.431398
                                                         0.189498      -0.030025
                                                         0.083802      -0.003290
                                                         0.052949       0.000623
                          1      11    5fxz2             2.540273       1.963389
                                                         1.999996      -1.759425
                                                         0.894040      -0.937912
                                                         0.439257      -0.249068
                                                         0.189498      -0.017335
                                                         0.083802      -0.001899
                                                         0.052949       0.000360
                          1      11    5fy3              2.540273       0.878054
                                                         1.999996      -0.786839
                                                         0.894040      -0.419447
                                                         0.439257      -0.111386
                                                         0.189498      -0.007752
                                                         0.083802      -0.000849
                                                         0.052949       0.000161
                          1      11    5fy2z             2.540273       1.963389
                                                         1.999996      -1.759425
                                                         0.894040      -0.937912
                                                         0.439257      -0.249068
                                                         0.189498      -0.017335
                                                         0.083802      -0.001899
                                                         0.052949       0.000360
                          1      11    5fyz2             2.540273       1.963389
                                                         1.999996      -1.759425
                                                         0.894040      -0.937912
                                                         0.439257      -0.249068
                                                         0.189498      -0.017335
                                                         0.083802      -0.001899
                                                         0.052949       0.000360
                          1      11    5fz3              2.540273       0.878054
                                                         1.999996      -0.786839
                                                         0.894040      -0.419447
                                                         0.439257      -0.111386
                                                         0.189498      -0.007752
                                                         0.083802      -0.000849
                                                         0.052949       0.000161

                          1      12    6fx3              2.540273       0.396157
                                                         1.999996      -0.370026
                                                         0.894040       0.516215
                                                         0.439257      -0.036427
                                                         0.189498      -0.015509
                                                         0.083802      -0.000859
                                                         0.052949      -0.001005
                          1      12    6fx2y             2.540273       0.885834
                                                         1.999996      -0.827403
                                                         0.894040       1.154292
                                                         0.439257      -0.081452
                                                         0.189498      -0.034678
                                                         0.083802      -0.001921
                                                         0.052949      -0.002247
                          1      12    6fx2z             2.540273       0.885834
                                                         1.999996      -0.827403
                                                         0.894040       1.154292
                                                         0.439257      -0.081452
                                                         0.189498      -0.034678
                                                         0.083802      -0.001921
                                                         0.052949      -0.002247
                          1      12    6fxy2             2.540273       0.885834
                                                         1.999996      -0.827403
                                                         0.894040       1.154292
                                                         0.439257      -0.081452
                                                         0.189498      -0.034678
                                                         0.083802      -0.001921
                                                         0.052949      -0.002247
                          1      12    6fxyz             2.540273       1.534310
                                                         1.999996      -1.433104
                                                         0.894040       1.999293
                                                         0.439257      -0.141080
                                                         0.189498      -0.060064
                                                         0.083802      -0.003326
                                                         0.052949      -0.003891
                          1      12    6fxz2             2.540273       0.885834
                                                         1.999996      -0.827403
                                                         0.894040       1.154292
                                                         0.439257      -0.081452
                                                         0.189498      -0.034678
                                                         0.083802      -0.001921
                                                         0.052949      -0.002247
                          1      12    6fy3              2.540273       0.396157
                                                         1.999996      -0.370026
                                                         0.894040       0.516215
                                                         0.439257      -0.036427
                                                         0.189498      -0.015509
                                                         0.083802      -0.000859
                                                         0.052949      -0.001005
                          1      12    6fy2z             2.540273       0.885834
                                                         1.999996      -0.827403
                                                         0.894040       1.154292
                                                         0.439257      -0.081452
                                                         0.189498      -0.034678
                                                         0.083802      -0.001921
                                                         0.052949      -0.002247
                          1      12    6fyz2             2.540273       0.885834
                                                         1.999996      -0.827403
                                                         0.894040       1.154292
                                                         0.439257      -0.081452
                                                         0.189498      -0.034678
                                                         0.083802      -0.001921
                                                         0.052949      -0.002247
                          1      12    6fz3              2.540273       0.396157
                                                         1.999996      -0.370026
                                                         0.894040       0.516215
                                                         0.439257      -0.036427
                                                         0.189498      -0.015509
                                                         0.083802      -0.000859
                                                         0.052949      -0.001005

     RI Auxiliary Basis Set                                 def2-SVP-RIFIT-mod-2

       Number of orbital shell sets:                                          17
       Number of orbital shells:                                              17
       Number of primitive Cartesian functions:                               17
       Number of Cartesian basis functions:                                   91
       Number of spherical basis functions:                                   69
       Norm type:                                                              2

       Normalised Cartesian orbitals:

                        Set   Shell   Orbital            Exponent    Coefficient

                          1       1    1s                0.185545       0.201487

                          2       1    1px               0.223731       0.219330
                          2       1    1py               0.223731       0.219330
                          2       1    1pz               0.223731       0.219330

                          3       1    1dx2              0.346956       0.258160
                          3       1    1dxy              0.346956       0.447147
                          3       1    1dxz              0.346956       0.447147
                          3       1    1dy2              0.346956       0.258160
                          3       1    1dyz              0.346956       0.447147
                          3       1    1dz2              0.346956       0.258160

                          4       1    1s                0.360392       0.331506

                          5       1    1fx3              0.410523       0.198593
                          5       1    1fx2y             0.410523       0.444066
                          5       1    1fx2z             0.410523       0.444066
                          5       1    1fxy2             0.410523       0.444066
                          5       1    1fxyz             0.410523       0.769146
                          5       1    1fxz2             0.410523       0.444066
                          5       1    1fy3              0.410523       0.198593
                          5       1    1fy2z             0.410523       0.444066
                          5       1    1fyz2             0.410523       0.444066
                          5       1    1fz3              0.410523       0.198593

                          6       1    1px               0.498778       0.597481
                          6       1    1py               0.498778       0.597481
                          6       1    1pz               0.498778       0.597481

                          7       1    1gx4              0.570000       0.237187
                          7       1    1gx3y             0.570000       0.627538
                          7       1    1gx3z             0.570000       0.627538
                          7       1    1gx2y2            0.570000       0.810149
                          7       1    1gx2yz            0.570000       1.403218
                          7       1    1gx2z2            0.570000       0.810149
                          7       1    1gxy3             0.570000       0.627538
                          7       1    1gxy2z            0.570000       1.403218
                          7       1    1gxyz2            0.570000       1.403218
                          7       1    1gxz3             0.570000       0.627538
                          7       1    1gy4              0.570000       0.237187
                          7       1    1gy3z             0.570000       0.627538
                          7       1    1gy2z2            0.570000       0.810149
                          7       1    1gyz3             0.570000       0.627538
                          7       1    1gz4              0.570000       0.237187

                          8       1    1dx2              0.576698       0.628158
                          8       1    1dxy              0.576698       1.088002
                          8       1    1dxz              0.576698       1.088002
                          8       1    1dy2              0.576698       0.628158
                          8       1    1dyz              0.576698       1.088002
                          8       1    1dz2              0.576698       0.628158

                          9       1    1s                0.619083       0.497418

                         10       1    1s                1.092167       0.761424

                         11       1    1fx3              1.103628       1.837832
                         11       1    1fx2y             1.103628       4.109516
                         11       1    1fx2z             1.103628       4.109516
                         11       1    1fxy2             1.103628       4.109516
                         11       1    1fxyz             1.103628       7.117891
                         11       1    1fxz2             1.103628       4.109516
                         11       1    1fy3              1.103628       1.837832
                         11       1    1fy2z             1.103628       4.109516
                         11       1    1fyz2             1.103628       4.109516
                         11       1    1fz3              1.103628       1.837832

                         12       1    1px               1.390701       2.152694
                         12       1    1py               1.390701       2.152694
                         12       1    1pz               1.390701       2.152694

                         13       1    1dx2              1.439171       3.112475
                         13       1    1dxy              1.439171       5.390965
                         13       1    1dxz              1.439171       5.390965
                         13       1    1dy2              1.439171       3.112475
                         13       1    1dyz              1.439171       5.390965
                         13       1    1dz2              1.439171       3.112475

                         14       1    1gx4              1.615953       4.164995
                         14       1    1gx3y             1.615953      11.019542
                         14       1    1gx3z             1.615953      11.019542
                         14       1    1gx2y2            1.615953      14.226167
                         14       1    1gx2yz            1.615953      24.640444
                         14       1    1gx2z2            1.615953      14.226167
                         14       1    1gxy3             1.615953      11.019542
                         14       1    1gxy2z            1.615953      24.640444
                         14       1    1gxyz2            1.615953      24.640444
                         14       1    1gxz3             1.615953      11.019542
                         14       1    1gy4              1.615953       4.164995
                         14       1    1gy3z             1.615953      11.019542
                         14       1    1gy2z2            1.615953      14.226167
                         14       1    1gyz3             1.615953      11.019542
                         14       1    1gz4              1.615953       4.164995

                         15       1    1px               2.100661       3.604831
                         15       1    1py               2.100661       3.604831
                         15       1    1pz               2.100661       3.604831

                         16       1    1s                2.197983       1.286555

                         17       1    1dx2              2.302596       7.084198
                         17       1    1dxy              2.302596      12.270190
                         17       1    1dxz              2.302596      12.270190
                         17       1    1dy2              2.302596       7.084198
                         17       1    1dyz              2.302596      12.270190
                         17       1    1dz2              2.302596       7.084198

       Atomic covalent radius [Angstrom]:                                  1.300

       Atomic van der Waals radius [Angstrom]:                             1.670

     GTH Potential information for                                  GTH-PADE-q14

       Description:                       Goedecker-Teter-Hutter pseudopotential
                                           Goedecker et al., PRB 54, 1703 (1996)
                                          Hartwigsen et al., PRB 58, 3641 (1998)
                                                      Krack, TCA 114, 145 (2005)

       Gaussian exponent of the core charge distribution:               2.704164
       Electronic configuration (s p d ...):                           3   6   5

       Parameters of the local part of the GTH pseudopotential:

                          rloc        C1          C2          C3          C4
                        0.430000   16.237452    1.496536

       Parameters of the non-local part of the GTH pseudopotential:

                   l      r(l)      h(i,j,l)

                   0    0.376255    3.362426    2.048528
                                    2.048528   -5.289276
                   1    0.361734   -0.379571    1.718923
                                    1.718923   -4.067713
                   2    0.525828   -1.543211   -0.473760
                                   -0.473760    1.074388

  2. Atomic kind: Se                                    Number of atoms:     200

     Orbital Basis Set                                       TZV2P-MOLOPT-SR-GTH

       Number of orbital shell sets:                                           1
       Number of orbital shells:                                               8
       Number of primitive Cartesian functions:                                4
       Number of Cartesian basis functions:                                   24
       Number of spherical basis functions:                                   22
       Norm type:                                                              2

       Normalised Cartesian orbitals:

                        Set   Shell   Orbital            Exponent    Coefficient

                          1       1    2s                1.465689       0.494570
                                                         1.029752      -0.180977
                                                         0.303575      -0.216980
                                                         0.107173      -0.053368

                          1       2    3s                1.465689       0.532885
                                                         1.029752      -0.330782
                                                         0.303575       0.006665
                                                         0.107173       0.129622

                          1       3    4s                1.465689       1.121876
                                                         1.029752      -0.920455
                                                         0.303575       0.570550
                                                         0.107173      -0.176214

                          1       4    3px               1.465689       0.107882
                                                         1.029752      -0.079700
                                                         0.303575      -0.126036
                                                         0.107173      -0.058572
                          1       4    3py               1.465689       0.107882
                                                         1.029752      -0.079700
                                                         0.303575      -0.126036
                                                         0.107173      -0.058572
                          1       4    3pz               1.465689       0.107882
                                                         1.029752      -0.079700
                                                         0.303575      -0.126036
                                                         0.107173      -0.058572

                          1       5    4px               1.465689       1.547982
                                                         1.029752      -1.230554
                                                         0.303575      -0.365142
                                                         0.107173       0.068159
                          1       5    4py               1.465689       1.547982
                                                         1.029752      -1.230554
                                                         0.303575      -0.365142
                                                         0.107173       0.068159
                          1       5    4pz               1.465689       1.547982
                                                         1.029752      -1.230554
                                                         0.303575      -0.365142
                                                         0.107173       0.068159

                          1       6    5px               1.465689       3.733852
                                                         1.029752      -2.632709
                                                         0.303575       0.559576
                                                         0.107173      -0.066707
                          1       6    5py               1.465689       3.733852
                                                         1.029752      -2.632709
                                                         0.303575       0.559576
                                                         0.107173      -0.066707
                          1       6    5pz               1.465689       3.733852
                                                         1.029752      -2.632709
                                                         0.303575       0.559576
                                                         0.107173      -0.066707

                          1       7    4dx2              1.465689       0.307774
                                                         1.029752      -0.370040
                                                         0.303575      -0.112586
                                                         0.107173      -0.015926
                          1       7    4dxy              1.465689       0.533081
                                                         1.029752      -0.640929
                                                         0.303575      -0.195005
                                                         0.107173      -0.027585
                          1       7    4dxz              1.465689       0.533081
                                                         1.029752      -0.640929
                                                         0.303575      -0.195005
                                                         0.107173      -0.027585
                          1       7    4dy2              1.465689       0.307774
                                                         1.029752      -0.370040
                                                         0.303575      -0.112586
                                                         0.107173      -0.015926
                          1       7    4dyz              1.465689       0.533081
                                                         1.029752      -0.640929
                                                         0.303575      -0.195005
                                                         0.107173      -0.027585
                          1       7    4dz2              1.465689       0.307774
                                                         1.029752      -0.370040
                                                         0.303575      -0.112586
                                                         0.107173      -0.015926

                          1       8    5dx2              1.465689      -0.987464
                                                         1.029752       1.348321
                                                         0.303575       0.106974
                                                         0.107173      -0.033181
                          1       8    5dxy              1.465689      -1.710337
                                                         1.029752       2.335360
                                                         0.303575       0.185284
                                                         0.107173      -0.057471
                          1       8    5dxz              1.465689      -1.710337
                                                         1.029752       2.335360
                                                         0.303575       0.185284
                                                         0.107173      -0.057471
                          1       8    5dy2              1.465689      -0.987464
                                                         1.029752       1.348321
                                                         0.303575       0.106974
                                                         0.107173      -0.033181
                          1       8    5dyz              1.465689      -1.710337
                                                         1.029752       2.335360
                                                         0.303575       0.185284
                                                         0.107173      -0.057471
                          1       8    5dz2              1.465689      -0.987464
                                                         1.029752       1.348321
                                                         0.303575       0.106974
                                                         0.107173      -0.033181

     RI Auxiliary Basis Set                                 def2-SVP-RIFIT-mod-3

       Number of orbital shell sets:                                          12
       Number of orbital shells:                                              12
       Number of primitive Cartesian functions:                               12
       Number of Cartesian basis functions:                                   44
       Number of spherical basis functions:                                   38
       Norm type:                                                              2

       Normalised Cartesian orbitals:

                        Set   Shell   Orbital            Exponent    Coefficient

                          1       1    1s                0.228146       0.235272

                          2       1    1dx2              0.255873       0.151514
                          2       1    1dxy              0.255873       0.262430
                          2       1    1dxz              0.255873       0.262430
                          2       1    1dy2              0.255873       0.151514
                          2       1    1dyz              0.255873       0.262430
                          2       1    1dz2              0.255873       0.151514

                          3       1    1px               0.271607       0.279490
                          3       1    1py               0.271607       0.279490
                          3       1    1pz               0.271607       0.279490

                          4       1    1s                0.368618       0.337165

                          5       1    1dx2              0.492940       0.477308
                          5       1    1dxy              0.492940       0.826723
                          5       1    1dxz              0.492940       0.826723
                          5       1    1dy2              0.492940       0.477308
                          5       1    1dyz              0.492940       0.826723
                          5       1    1dz2              0.492940       0.477308

                          6       1    1px               0.522961       0.633908
                          6       1    1py               0.522961       0.633908
                          6       1    1pz               0.522961       0.633908

                          7       1    1s                0.572587       0.469128

                          8       1    1fx3              0.711060       0.683508
                          8       1    1fx2y             0.711060       1.528371
                          8       1    1fx2z             0.711060       1.528371
                          8       1    1fxy2             0.711060       1.528371
                          8       1    1fxyz             0.711060       2.647216
                          8       1    1fxz2             0.711060       1.528371
                          8       1    1fy3              0.711060       0.683508
                          8       1    1fy2z             0.711060       1.528371
                          8       1    1fyz2             0.711060       1.528371
                          8       1    1fz3              0.711060       0.683508

                          9       1    1px               1.002555       1.429965
                          9       1    1py               1.002555       1.429965
                          9       1    1pz               1.002555       1.429965

                         10       1    1dx2              1.339632       2.745579
                         10       1    1dxy              1.339632       4.755483
                         10       1    1dxz              1.339632       4.755483
                         10       1    1dy2              1.339632       2.745579
                         10       1    1dyz              1.339632       4.755483
                         10       1    1dz2              1.339632       2.745579

                         11       1    1px               1.705131       2.777392
                         11       1    1py               1.705131       2.777392
                         11       1    1pz               1.705131       2.777392

                         12       1    1s                2.077977       1.233504

       Atomic covalent radius [Angstrom]:                                  1.160

       Atomic van der Waals radius [Angstrom]:                             1.900

     GTH Potential information for                                   GTH-PADE-q6

       Description:                       Goedecker-Teter-Hutter pseudopotential
                                           Goedecker et al., PRB 54, 1703 (1996)
                                          Hartwigsen et al., PRB 58, 3641 (1998)
                                                      Krack, TCA 114, 145 (2005)

       Gaussian exponent of the core charge distribution:               1.922338
       Electronic configuration (s p d ...):                               2   4

       Parameters of the local part of the GTH pseudopotential:

                          rloc        C1          C2          C3          C4
                        0.510000

       Parameters of the non-local part of the GTH pseudopotential:

                   l      r(l)      h(i,j,l)

                   0    0.432531    5.145131   -0.794740   -0.334051
                                   -0.794740    2.052009    0.862517
                                   -0.334051    0.862517   -1.369203
                   1    0.472473    2.858806    0.249604
                                    0.249604   -0.590670
                   2    0.613420    0.434829


 MOLECULE KIND INFORMATION


 All atoms are their own molecule, skipping detailed information


 TOTAL NUMBERS AND MAXIMUM NUMBERS

  Total number of            - Atomic kinds:                                   2
                             - Atoms:                                        300
                             - Shell sets:                                   300
                             - Shells:                                      2800
                             - Primitive Cartesian functions:               1500
                             - Cartesian basis functions:                   9900
                             - Spherical basis functions:                   8600

  Maximum angular momentum of- Orbital basis functions:                        3
                             - Local part of the GTH pseudopotential:          2
                             - Non-local part of the GTH pseudopotential:      4


 MODULE QUICKSTEP: ATOMIC COORDINATES IN ANGSTROM

   Atom Kind Element         X             Y             Z       Z(eff)     Mass
      1    1 Mo   42      0.000000      0.000000      7.169029  14.0000  95.9600
      2    2 Se   34      1.659874      0.958329      8.838059   6.0000  78.9600
      3    2 Se   34      1.659874      0.958329      5.500000   6.0000  78.9600
      4    1 Mo   42      3.320000      0.000000      7.169029  14.0000  95.9600
      5    2 Se   34      4.979874      0.958329      8.838059   6.0000  78.9600
      6    2 Se   34      4.979874      0.958329      5.500000   6.0000  78.9600
      7    1 Mo   42      6.640000      0.000000      7.169029  14.0000  95.9600
      8    2 Se   34      8.299874      0.958329      8.838059   6.0000  78.9600
      9    2 Se   34      8.299874      0.958329      5.500000   6.0000  78.9600
     10    1 Mo   42      9.960000      0.000000      7.169029  14.0000  95.9600
     11    2 Se   34     11.619874      0.958329      8.838059   6.0000  78.9600
     12    2 Se   34     11.619874      0.958329      5.500000   6.0000  78.9600
     13    1 Mo   42     13.280000      0.000000      7.169029  14.0000  95.9600
     14    2 Se   34     14.939874      0.958329      8.838059   6.0000  78.9600
     15    2 Se   34     14.939874      0.958329      5.500000   6.0000  78.9600
     16    1 Mo   42     16.600000      0.000000      7.169029  14.0000  95.9600
     17    2 Se   34     18.259874      0.958329      8.838059   6.0000  78.9600
     18    2 Se   34     18.259874      0.958329      5.500000   6.0000  78.9600
     19    1 Mo   42     19.920000      0.000000      7.169029  14.0000  95.9600
     20    2 Se   34     21.579874      0.958329      8.838059   6.0000  78.9600
     21    2 Se   34     21.579874      0.958329      5.500000   6.0000  78.9600
     22    1 Mo   42     23.240000      0.000000      7.169029  14.0000  95.9600
     23    2 Se   34     24.899874      0.958329      8.838059   6.0000  78.9600
     24    2 Se   34     24.899874      0.958329      5.500000   6.0000  78.9600
     25    1 Mo   42     26.560000      0.000000      7.169029  14.0000  95.9600
     26    2 Se   34     28.219874      0.958329      8.838059   6.0000  78.9600
     27    2 Se   34     28.219874      0.958329      5.500000   6.0000  78.9600
     28    1 Mo   42     29.880000      0.000000      7.169029  14.0000  95.9600
     29    2 Se   34     31.539874      0.958329      8.838059   6.0000  78.9600
     30    2 Se   34     31.539874      0.958329      5.500000   6.0000  78.9600
     31    1 Mo   42     -1.660000      2.875000      7.169029  14.0000  95.9600
     32    2 Se   34     -0.000126      3.833329      8.838059   6.0000  78.9600
     33    2 Se   34     -0.000126      3.833329      5.500000   6.0000  78.9600
     34    1 Mo   42      1.660000      2.875000      7.169029  14.0000  95.9600
     35    2 Se   34      3.319874      3.833329      8.838059   6.0000  78.9600
     36    2 Se   34      3.319874      3.833329      5.500000   6.0000  78.9600
     37    1 Mo   42      4.980000      2.875000      7.169029  14.0000  95.9600
     38    2 Se   34      6.639874      3.833329      8.838059   6.0000  78.9600
     39    2 Se   34      6.639874      3.833329      5.500000   6.0000  78.9600
     40    1 Mo   42      8.300000      2.875000      7.169029  14.0000  95.9600
     41    2 Se   34      9.959874      3.833329      8.838059   6.0000  78.9600
     42    2 Se   34      9.959874      3.833329      5.500000   6.0000  78.9600
     43    1 Mo   42     11.620000      2.875000      7.169029  14.0000  95.9600
     44    2 Se   34     13.279874      3.833329      8.838059   6.0000  78.9600
     45    2 Se   34     13.279874      3.833329      5.500000   6.0000  78.9600
     46    1 Mo   42     14.940000      2.875000      7.169029  14.0000  95.9600
     47    2 Se   34     16.599874      3.833329      8.838059   6.0000  78.9600
     48    2 Se   34     16.599874      3.833329      5.500000   6.0000  78.9600
     49    1 Mo   42     18.260000      2.875000      7.169029  14.0000  95.9600
     50    2 Se   34     19.919874      3.833329      8.838059   6.0000  78.9600
     51    2 Se   34     19.919874      3.833329      5.500000   6.0000  78.9600
     52    1 Mo   42     21.580000      2.875000      7.169029  14.0000  95.9600
     53    2 Se   34     23.239874      3.833329      8.838059   6.0000  78.9600
     54    2 Se   34     23.239874      3.833329      5.500000   6.0000  78.9600
     55    1 Mo   42     24.900000      2.875000      7.169029  14.0000  95.9600
     56    2 Se   34     26.559874      3.833329      8.838059   6.0000  78.9600
     57    2 Se   34     26.559874      3.833329      5.500000   6.0000  78.9600
     58    1 Mo   42     28.220000      2.875000      7.169029  14.0000  95.9600
     59    2 Se   34     29.879874      3.833329      8.838059   6.0000  78.9600
     60    2 Se   34     29.879874      3.833329      5.500000   6.0000  78.9600
     61    1 Mo   42     -3.320000      5.750000      7.169029  14.0000  95.9600
     62    2 Se   34     -1.660126      6.708329      8.838059   6.0000  78.9600
     63    2 Se   34     -1.660126      6.708329      5.500000   6.0000  78.9600
     64    1 Mo   42      0.000000      5.750000      7.169029  14.0000  95.9600
     65    2 Se   34      1.659874      6.708329      8.838059   6.0000  78.9600
     66    2 Se   34      1.659874      6.708329      5.500000   6.0000  78.9600
     67    1 Mo   42      3.320000      5.750000      7.169029  14.0000  95.9600
     68    2 Se   34      4.979874      6.708329      8.838059   6.0000  78.9600
     69    2 Se   34      4.979874      6.708329      5.500000   6.0000  78.9600
     70    1 Mo   42      6.640000      5.750000      7.169029  14.0000  95.9600
     71    2 Se   34      8.299874      6.708329      8.838059   6.0000  78.9600
     72    2 Se   34      8.299874      6.708329      5.500000   6.0000  78.9600
     73    1 Mo   42      9.960000      5.750000      7.169029  14.0000  95.9600
     74    2 Se   34     11.619874      6.708329      8.838059   6.0000  78.9600
     75    2 Se   34     11.619874      6.708329      5.500000   6.0000  78.9600
     76    1 Mo   42     13.280000      5.750000      7.169029  14.0000  95.9600
     77    2 Se   34     14.939874      6.708329      8.838059   6.0000  78.9600
     78    2 Se   34     14.939874      6.708329      5.500000   6.0000  78.9600
     79    1 Mo   42     16.600000      5.750000      7.169029  14.0000  95.9600
     80    2 Se   34     18.259874      6.708329      8.838059   6.0000  78.9600
     81    2 Se   34     18.259874      6.708329      5.500000   6.0000  78.9600
     82    1 Mo   42     19.920000      5.750000      7.169029  14.0000  95.9600
     83    2 Se   34     21.579874      6.708329      8.838059   6.0000  78.9600
     84    2 Se   34     21.579874      6.708329      5.500000   6.0000  78.9600
     85    1 Mo   42     23.240000      5.750000      7.169029  14.0000  95.9600
     86    2 Se   34     24.899874      6.708329      8.838059   6.0000  78.9600
     87    2 Se   34     24.899874      6.708329      5.500000   6.0000  78.9600
     88    1 Mo   42     26.560000      5.750000      7.169029  14.0000  95.9600
     89    2 Se   34     28.219874      6.708329      8.838059   6.0000  78.9600
     90    2 Se   34     28.219874      6.708329      5.500000   6.0000  78.9600
     91    1 Mo   42     -4.980000      8.625000      7.169029  14.0000  95.9600
     92    2 Se   34     -3.320126      9.583329      8.838059   6.0000  78.9600
     93    2 Se   34     -3.320126      9.583329      5.500000   6.0000  78.9600
     94    1 Mo   42     -1.660000      8.625000      7.169029  14.0000  95.9600
     95    2 Se   34     -0.000126      9.583329      8.838059   6.0000  78.9600
     96    2 Se   34     -0.000126      9.583329      5.500000   6.0000  78.9600
     97    1 Mo   42      1.660000      8.625000      7.169029  14.0000  95.9600
     98    2 Se   34      3.319874      9.583329      8.838059   6.0000  78.9600
     99    2 Se   34      3.319874      9.583329      5.500000   6.0000  78.9600
    100    1 Mo   42      4.980000      8.625000      7.169029  14.0000  95.9600
    101    2 Se   34      6.639874      9.583329      8.838059   6.0000  78.9600
    102    2 Se   34      6.639874      9.583329      5.500000   6.0000  78.9600
    103    1 Mo   42      8.300000      8.625000      7.169029  14.0000  95.9600
    104    2 Se   34      9.959874      9.583329      8.838059   6.0000  78.9600
    105    2 Se   34      9.959874      9.583329      5.500000   6.0000  78.9600
    106    1 Mo   42     11.620000      8.625000      7.169029  14.0000  95.9600
    107    2 Se   34     13.279874      9.583329      8.838059   6.0000  78.9600
    108    2 Se   34     13.279874      9.583329      5.500000   6.0000  78.9600
    109    1 Mo   42     14.940000      8.625000      7.169029  14.0000  95.9600
    110    2 Se   34     16.599874      9.583329      8.838059   6.0000  78.9600
    111    2 Se   34     16.599874      9.583329      5.500000   6.0000  78.9600
    112    1 Mo   42     18.260000      8.625000      7.169029  14.0000  95.9600
    113    2 Se   34     19.919874      9.583329      8.838059   6.0000  78.9600
    114    2 Se   34     19.919874      9.583329      5.500000   6.0000  78.9600
    115    1 Mo   42     21.580000      8.625000      7.169029  14.0000  95.9600
    116    2 Se   34     23.239874      9.583329      8.838059   6.0000  78.9600
[...]
 flops total                         5.317262E+12      23.5%     76.5%      0.0%
 flops max/rank                      6.133154E+09      22.9%     77.1%      0.0%
 matmuls inhomo. stacks                    154320     100.0%      0.0%      0.0%
 matmuls total                           23413200       0.7%     99.3%      0.0%
 number of processed stacks               6833085       2.3%     97.7%      0.0%
 average stack size                                     1.0       3.5       0.0
 marketing flops                     1.272112E+12
 -------------------------------------------------------------------------------
 # multiplications                              8
 max memory usage/rank             919.920640E+06
 # max total images/rank                        5
 # max 3D layers                                1
 # MPI messages exchanged                 1576960
 MPI messages size (bytes):
  total size                       428.968018E+09
  min size                           0.000000E+00
  max size                         639.360000E+03
  average size                     272.022125E+03
 MPI breakdown and total messages size (bytes):
             size <=      128              126000                        0
       128 < size <=     8192                   0                        0
      8192 < size <=    32768               59430               1525057440
     32768 < size <=   131072              582570              53501182560
    131072 < size <=  4194304              808960             373941760000
   4194304 < size <= 16777216                   0                        0
  16777216 < size                               0                        0
 -------------------------------------------------------------------------------

 *** WARNING in dbcsr_mm.F:290 :: Using a non-square number of MPI ranks   ***
 *** might lead to poor performance. Used ranks: 1280 Suggested: 1296 2601 ***

 -------------------------------------------------------------------------------
 -                                                                             -
 -                      DBCSR MESSAGE PASSING PERFORMANCE                      -
 -                                                                             -
 -------------------------------------------------------------------------------
 ROUTINE             CALLS      AVE VOLUME [Bytes]
 MP_Bcast              127                     12.
 MP_Allreduce          315                     23.
 MP_Alltoall        260019                4202135.
 MP_ISend             2560                 132923.
 MP_IRecv             2560                 132402.
 -------------------------------------------------------------------------------

 -------------------------------------------------------------------------------
 -                                                                             -
 -                                DBM STATISTICS                               -
 -                                                                             -
 -------------------------------------------------------------------------------
    M  x    N  x    K                                          COUNT     PERCENT
  ???  x   ??  x   ??                                   250715502700      15.06%
    ?  x >999  x   ??                                    18497098205       1.11%
    ?  x >999  x    ?                                    44006958485       2.64%
   ??  x   ??  x >999                                     5256261170       0.32%
    ?  x    ?  x    ?                                   541240037349      32.51%
   ??  x >999  x   ??                                     8382766874       0.50%
    ?  x   ??  x >999                                    12291809599       0.74%
   ??  x    ?  x >999                                    12236376072       0.74%
    ?  x    ?  x  ???                                   106696674515       6.41%
    ?  x  ???  x   ??                                    63560822339       3.82%
   ??  x   ??  x  ???                                   205127277501      12.32%
   ??  x  ???  x   ??                                    28802966980       1.73%
    ?  x    ?  x >999                                    28614360834       1.72%
   ??  x >999  x    ?                                    19934624673       1.20%
    ?  x  ???  x    ?                                   157248370760       9.45%
    ?  x   ??  x  ???                                    45541140451       2.74%
   ??  x  ???  x    ?                                    71224991964       4.28%
   ??  x    ?  x  ???                                    45357626870       2.72%
 -------------------------------------------------------------------------------

 -------------------------------------------------------------------------------
 -                                                                             -
 -                                GRID STATISTICS                              -
 -                                                                             -
 -------------------------------------------------------------------------------
 LP    KERNEL             BACKEND                              COUNT     PERCENT
 5     collocate general  CPU                                2508000      22.56%
 5     integrate general  CPU                                2508000      22.56%
 6     collocate general  CPU                                1421000      12.78%
 6     integrate general  CPU                                1421000      12.78%
 4     collocate general  CPU                                1053000       9.47%
 4     integrate general  CPU                                1053000       9.47%
 0     collocate general  CPU                                 768000       6.91%
 0     integrate general  CPU                                 384000       3.45%
 -------------------------------------------------------------------------------

 MEMORY| Estimated peak process memory [MiB]                                5955

 -------------------------------------------------------------------------------
 ----                             MULTIGRID INFO                            ----
 -------------------------------------------------------------------------------
 count for grid        1:       31633400          cutoff [a.u.]          250.00
 count for grid        2:       20957440          cutoff [a.u.]           83.33
 count for grid        3:       14332780          cutoff [a.u.]           27.78
 count for grid        4:        4307000          cutoff [a.u.]            9.26
 total gridlevel count  :       71230620

 -------------------------------------------------------------------------------
 -                                                                             -
 -                         MESSAGE PASSING PERFORMANCE                         -
 -                                                                             -
 -------------------------------------------------------------------------------

 ROUTINE             CALLS      AVE VOLUME [Bytes]
 MP_Group            15989
 MP_Bcast            25615                 314930.
 MP_Allreduce        30789                  16370.
 MP_Sync             24323
 MP_Alltoall         10724
 MP_SendRecv         19185                  24960.
 MP_ISendRecv        19185                  24960.
 MP_Wait             38911
 MP_comm_split        9347
 MP_ISend          1512564                 291579.
 MP_IRecv          1664798                 304727.
 -------------------------------------------------------------------------------


 -------------------------------------------------------------------------------
 -                                                                             -
 -                           R E F E R E N C E S                               -
 -                                                                             -
 -------------------------------------------------------------------------------
 
 CP2K version 2023.1 (Development Version), the CP2K developers group (2023).
 CP2K is freely available from https://www.cp2k.org/ .

 Kuehne,Thomas D.; Iannuzzi,Marcella; Del Ben,Mauro;
 Rybkin,Vladimir V.; Seewald,Patrick; Stein,Frederick; Laino,Teodoro;
 Khaliullin,Rustam Z.; Schuett,Ole; Schiffmann,Florian; Golze,Dorothea;
 Wilhelm,Jan; Chulkov,Sergey; Bani-Hashemian,Mohammad Hossein;
 Weber,Valery; Borstnik,Urban; Taillefumier,Mathieu;
 Jakobovits,Alice Shoshana; Lazzaro,Alfio; Pabst,Hans; Mueller,Tiziano;
 Schade,Robert; Guidon,Manuel; Andermatt,Samuel; Holmberg,Nico;
 Schenter,Gregory K.; Hehn,Anna; Bussy,Augustin; Belleflamme,Fabian;
 Tabacchi,Gloria; Gloess,Andreas; Lass,Michael; Bethune,Iain;
 Mundy,Christopher J.; Plessl,Christian; Watkins,Matt;
 VandeVondele,Joost; Krack,Matthias; Hutter,Juerg. 
 The Journal of Chemical Physics, 152 (19), (2020). 
 CP2K: An electronic structure and molecular dynamics software package -
 Quickstep: Efficient and accurate electronic structure calculations.
 https://doi.org/10.1063/5.0007045

 Wilhelm, J; Golze, D; Talirz, L; Hutter, J; Pignedoli, CA. 
 JOURNAL OF PHYSICAL CHEMISTRY LETTERS, 9, 306-312 (2018). 
 Toward GW calculations on thousands of atoms.
 https://doi.org/10.1021/acs.jpclett.7b02740

 Wilhelm, J; Hutter, J. PHYSICAL REVIEW B, 95, 235123 (2017). 
 Periodic GW calculations in the Gaussian and plane-waves scheme.
 https://doi.org/10.1103/PhysRevB.95.235123

 Wilhelm, J; Del Ben, M; Hutter, J. 
 JOURNAL OF CHEMICAL THEORY AND COMPUTATION, 12, 3623-3635 (2016). 
 GW in the Gaussian and plane waves scheme with application to linear acenes.
 https://doi.org/10.1021/acs.jctc.6b00380

 Wilhelm, J; Seewald, P; Del Ben, M; Hutter, J. 
 JOURNAL OF CHEMICAL THEORY AND COMPUTATION, 12, 5851-5859 (2016). 
 Large-Scale Cubic-Scaling Random Phase Approximation Correlation.
 https://doi.org/10.1021/acs.jctc.6b00840

 Schuett, Ole; Messmer, Peter; Hutter, Juerg; VandeVondele, Joost. 
 Electronic Structure Calculations on Graphics Processing Units, John
 Wiley & Sons, Ltd, 173-190 (2016). 
 GPU-Accelerated Sparse Matrix-Matrix Multiplication for
 Linear Scaling Density Functional Theory.
 https://doi.org/10.1002/9781118670712.ch8

 Heinecke, A; Henry, G; Hutchinson, M; Pabst, H. 
 Proceedings of Intl. Supercomputing Conference, 981-991 (2016). 
 LIBXSMM: Accelerating Small Matrix Multiplications
 by Runtime Code Generation.
 https://doi.org/10.1109/SC.2016.83

 Del Ben, M; Schuett, O; Wentz, T; Messmer, P; Hutter, J;
 VandeVondele, J. 
 COMPUTER PHYSICS COMMUNICATIONS, 187, 120-129 (2015). 
 Enabling simulation at the fifth rung of DFT: Large scale RPA
 calculations with excellent time to solution.
 https://doi.org/10.1016/j.cpc.2014.10.021

 Borstnik, U; VandeVondele, J; Weber, V; Hutter, J. 
 PARALLEL COMPUTING, 40 (5-6), 47-58 (2014). 
 Sparse matrix multiplication: The distributed block-compressed sparse
 row library.
 https://doi.org/10.1016/j.parco.2014.03.012

 Hutter, J; Iannuzzi, M; Schiffmann, F; VandeVondele, J. 
 WIREs Comput Mol Sci., 4 (1), 15-25 (2014). 
 CP2K: atomistic simulations of condensed matter systems.
 https://doi.org/10.1002/wcms.1159

 Marek, A; Blum, V; Johanni, R; Havu, V; Lang, B; Auckenthaler, T;
 Heinecke, A; Bungartz, H; Lederer, H. 
 Journal of Physics: Condensed Matter, 26 (21), (2014). 
 The ELPA library: scalable parallel eigenvalue solutions for
 electronic structure
 theory and computational science.
 https://doi.org/10.1088/0953-8984/26/21/213201

 Del Ben, M; Hutter, J; VandeVondele, J. 
 JOURNAL OF CHEMICAL THEORY AND COMPUTATION, 9 (6), 2654-2671 (2013). 
 Electron Correlation in the Condensed Phase from a Resolution of
 Identity Approach Based on the Gaussian and Plane Waves Scheme.
 https://doi.org/10.1021/ct4002202

 Del Ben, M; Hutter, J; VandeVondele, J. 
 JOURNAL OF CHEMICAL THEORY AND COMPUTATION, 8 (11), 4177-4188 (2012). 
 Second-Order Moller-Plesset Perturbation Theory in the Condensed Phase:
 An Efficient and Massively Parallel Gaussian and Plane Waves Approach.
 https://doi.org/10.1021/ct300531w

 VandeVondele, J; Hutter, J. 
 JOURNAL OF CHEMICAL PHYSICS, 127 (11), 114105 (2007). 
 Gaussian basis sets for accurate calculations on molecular systems in
 gas and condensed phases.
 https://doi.org/10.1063/1.2770708

 Krack, M. 
 THEORETICAL CHEMISTRY ACCOUNTS, 114 (1-3), 145-152 (2005). 
 Pseudopotentials for H to Kr optimized for gradient-corrected
 exchange-correlation functionals.
 https://doi.org/10.1007/s00214-005-0655-y

 VandeVondele, J; Krack, M; Mohamed, F; Parrinello, M; Chassaing, T;
 Hutter, J. COMPUTER PHYSICS COMMUNICATIONS, 167 (2), 103-128 (2005). 
 QUICKSTEP: Fast and accurate density functional calculations using a
 mixed Gaussian and plane waves approach.
 https://doi.org/10.1016/j.cpc.2004.12.014

 Frigo, M; Johnson, SG. 
 PROCEEDINGS OF THE IEEE, 93 (2), 216-231 (2005). 
 The design and implementation of FFTW3.
 https://doi.org/10.1109/JPROC.2004.840301

 Hartwigsen, C; Goedecker, S; Hutter, J. 
 PHYSICAL REVIEW B, 58 (7), 3641-3662 (1998). 
 Relativistic separable dual-space Gaussian pseudopotentials from H to Rn.
 https://doi.org/10.1103/PhysRevB.58.3641

 Lippert, G; Hutter, J; Parrinello, M. 
 MOLECULAR PHYSICS, 92 (3), 477-487 (1997). 
 A hybrid Gaussian and plane wave density functional scheme.
 https://doi.org/10.1080/002689797170220

 Goedecker, S; Teter, M; Hutter, J. 
 PHYSICAL REVIEW B, 54 (3), 1703-1710 (1996). 
 Separable dual-space Gaussian pseudopotentials.
 https://doi.org/10.1103/PhysRevB.54.1703


 -------------------------------------------------------------------------------
 -                                                                             -
 -                                T I M I N G                                  -
 -                                                                             -
 -------------------------------------------------------------------------------
 SUBROUTINE                       CALLS  ASD         SELF TIME        TOTAL TIME
                                MAXIMUM       AVERAGE  MAXIMUM  AVERAGE  MAXIMUM
 CP2K                                 1  1.0     0.02     0.06 22048.87 22048.99
 qs_energies                          1  2.0     0.00     0.01 22047.72 22047.85
 mp2_main                             1  3.0     0.00     0.01 22034.02 22034.15
 mp2_gpw_main                         1  4.0     0.00     0.01 22031.95 22032.08
 rpa_ri_compute_en                    1  5.0     0.00     0.00 21525.92 21526.05
 rpa_num_int                          1  6.0     0.00     0.01 21094.26 21094.39
 dbt_total                         5507  9.8     0.04     0.05 11250.95 11251.02
 dbt_contract                      2205 11.0     0.13     0.16 10060.63 10067.47
 dbt_tas_total                     3295 13.4    63.37    74.82  9868.97  9869.03
 dbt_tas_multiply                  2874 12.9     0.01     0.01  9857.58  9857.63
 compute_QP_energies                  1  7.0     0.00     0.00  8975.05  8975.10
 compute_self_energy_cubic_gw_k       1  8.0     0.15     0.18  8974.90  8974.96
 rpa_num_int_RPA_matrix_operati      30  7.0     0.00     0.00  7436.35  7436.40
 invert_eps_compute_W_and_Erpa_      30  8.0     0.01     0.01  7436.33  7436.37
 dbt_tas_dbm                       2874 14.9     0.01     0.01  6554.43  6554.47
 compute_Q_kp_RPA                   780  9.0     0.32     0.72  5939.82  5941.23
 dbm_multiply                      2874 16.9  5102.15  5605.14  5102.15  5605.14
 cp_cfm_power                       832  9.9     0.65     0.98  5409.11  5409.95
 cp_cfm_heevd                       961 10.6  5293.08  5296.28  5293.08  5296.28
 compute_mat_P_omega                  1  7.0     0.00     0.00  4677.38  4677.40
 compute_mat_P_omega_contract        30  8.0    11.28    12.97  4635.32  4635.34
 parallel_gemm_cfm                11914 10.2     0.04     0.05  3952.68  3965.80
 parallel_gemm_cfm_cosma          11914 11.2  3952.65  3965.77  3952.65  3965.77
 contract_to_self_energy            558  9.0     0.01     0.02  3823.08  3824.33
 mp_sync                          24323 12.5  1865.45  3122.68  1865.45  3122.68
 dbt_tas_mm_2                       676 15.0     0.00     0.01  2954.10  2954.12
 tensor_operation_3c_W              279  9.0     0.00     0.00  2844.99  2846.14
 trafo_to_mo_and_kpoints             61  9.0     1.01     1.35  2227.31  2227.32
 mp_waitall_2                     13804 16.8  1933.61  2191.43  1933.61  2191.43
 dbt_tas_mm_3N                      540 16.5     0.00     0.00  1427.51  1624.70
 compute_mat_P_omega_calc_M_occ     270  9.0    11.31    13.03  1612.45  1612.46
 compute_mat_P_omega_calc_P_t       270  9.0     0.00     0.00  1493.97  1493.98
 dbt_tas_communicate_buffer        5270 17.3     0.72     1.10  1336.48  1387.57
 dbt_tas_replicate                 2500 15.0    49.90   141.94  1323.80  1370.09
 dbt_tas_replicate_communicate_    2019 16.2     0.17     0.25  1241.82  1288.18
 mp_isend_dv                    1229880 16.6   257.22  1250.83   257.22  1250.83
 compute_Wc_real_space_tau_GW       780  9.0     0.01     0.01  1211.94  1212.59
 dbt_copy                          2715 10.8     0.13     0.16  1004.71  1084.89
 dbt_reshape                       2675 11.8   110.13   127.20   998.09  1078.16
 dbm_redistribute                  6336 15.8  1001.65  1060.66  1001.65  1060.66
 dbt_communicate_buffer            2675 12.8     0.46     0.51   856.40   916.77
 dbt_tas_mm_3T                     1116 16.5     0.00     0.00   739.14   853.46
 compute_mat_P_omega_calc_M_vir     270  9.0     0.00     0.00   844.03   844.03
 convert_to_new_pgrid              8622 14.9    88.04   156.50   761.62   794.84
 compute_Wc_real_space_tau_GW_3     780 10.0     0.00     0.01   787.16   793.05
 dbt_tas_mm_1N                      542 15.0     0.00     0.00   506.71   736.70
 mp2_ri_gpw_compute_in                1  5.0     0.00     0.01   506.01   506.02
 get_2c_integrals                     1  6.0     0.00     0.00   469.94   469.95
 get_bandstruc_and_k_dependent_       1  6.0     0.00     0.00   431.65   431.65
 create_kp_and_calc_kp_orbitals       3  7.0     0.00     0.01   431.65   431.65
 compute_Wc_real_space_tau_GW_2     780 10.0     0.05     0.09   401.55   405.75
 cp_cfm_geeig                       129  8.0     0.00     0.00   405.33   405.71
 cp_cfm_cholesky_invert             780 11.0   394.28   396.54   394.28   396.54
 inversion_of_M_and_mult_with_c       1  7.0     0.00     0.00   372.64   372.64
 real_space_to_kpoint_transform      97  9.9     6.40     6.77   336.20   336.27
 mp_alltoall_d11v                120061 13.1   284.48   333.64   284.48   333.64
 dbcsr_new_transposed             19774 10.9     0.91     0.94   328.26   329.03
 dbcsr_redistribute               19768 11.9     3.40     4.09   327.15   327.98
 compute_mat_P_omega_copy_M_occ     270  9.0     0.00     0.00   255.14   255.65
 mp_alltoall_i11v                 99935 12.9   166.39   223.92   166.39   223.92
 mp_sum_l                         16967 14.5   158.45   221.17   158.45   221.17
 -------------------------------------------------------------------------------

 The number of warnings for this run is : 2
 
 -------------------------------------------------------------------------------
  **** **** ******  **  PROGRAM ENDED AT                 2023-06-17 20:47:51.234
 ***** ** ***  *** **   PROGRAM RAN ON                                  n2cn0377
 **    ****   ******    PROGRAM RAN BY                                  eprop2d1
 ***** **    ** ** **   PROGRAM PROCESS ID                               1381642
  **** **  *******  **  PROGRAM STOPPED IN /scratch/hpc-prf-eprop2d/eprop2d1_Jan
                                           /02_MoS2_MoSe2_WS2_WSe2/2_MoSe2/10x10
                                           _PBE/01_reg_RI_1e-2_TZV2P_gap_standar
                                           d_RI/2_30_minimax/2_regularization_1.
                                           0E-6
