 DBCSR| CPU Multiplication driver                                           XSMM (U)
 DBCSR| Multrec recursion limit                                              512 (U)
 DBCSR| Multiplication stack size                                           1000 (D)
 DBCSR| Maximum elements for images                                    UNLIMITED (U)
 DBCSR| Multiplicative factor virtual images                                   1 (U)
 DBCSR| Use multiplication densification                                       T (D)
 DBCSR| Multiplication size stacks                                             3 (U)
 DBCSR| Use memory pool for CPU allocation                                     F (U)
 DBCSR| Number of 3D layers                                               SINGLE (U)
 DBCSR| Use MPI memory allocation                                              F (U)
 DBCSR| Use RMA algorithm                                                      F (U)
 DBCSR| Use Communication thread                                               T (U)
 DBCSR| Communication thread load                                             75 (D)
 DBCSR| MPI: My process id                                                     0
 DBCSR| MPI: Number of processes                                            1440
 DBCSR| OMP: Current number of threads                                         4
 DBCSR| OMP: Max number of threads                                             4
 DBCSR| Split modifier for TAS multiplication algorithm                  1.0E+00 (U)


  **** **** ******  **  PROGRAM STARTED AT               2023-06-03 05:35:37.308
 ***** ** ***  *** **   PROGRAM STARTED ON                              n2cn0301
 **    ****   ******    PROGRAM STARTED BY                              eprop2d1
 ***** **    ** ** **   PROGRAM PROCESS ID                               2214572
  **** **  *******  **  PROGRAM STARTED IN /scratch/hpc-prf-eprop2d/eprop2d1_Jan
                                           /02_MoS2_MoSe2_WS2_WSe2/2_MoSe2/11x11
                                           _PBE/04_reg_RI_1e-2_TZVP_gap_standard
                                           _RI

 CP2K| version string:                 CP2K version 2023.1 (Development Version)
 CP2K| source code revision number:                                  git:a5f008f
 CP2K| cp2kflags: omp libint fftw3 libxc elpa parallel scalapack cosma xsmm plum
 CP2K|            ed2 spglib sirius libvori libbqb libvdwxc
 CP2K| is freely available from                            https://www.cp2k.org/
 CP2K| Program compiled at                         Tue Apr 11 10:47:55 CEST 2023
 CP2K| Program compiled on                                              n2login5
 CP2K| Program compiled for                                                local
 CP2K| Data directory path    /opt/software/pc2/EB-SW/software/CP2K/2023.1-foss-
 CP2K| Input file name                                                    GW.inp

 GLOBAL| Force Environment number                                              1
 GLOBAL| Basis set file name                                        BASIS_MOLOPT
 GLOBAL| Potential file name                                      GTH_POTENTIALS
 GLOBAL| MM Potential file name                                     MM_POTENTIAL
 GLOBAL| Coordinate file name                                      __STD_INPUT__
 GLOBAL| Method name                                                        CP2K
 GLOBAL| Project name                                                       MoS2
 GLOBAL| Run type                                                         ENERGY
 GLOBAL| FFT library                                                       FFTW3
 GLOBAL| Diagonalization library                                            ELPA
 GLOBAL| DGEMM library                                                      BLAS
 GLOBAL| Minimum number of eigenvectors for ELPA usage                        16
 GLOBAL| Orthonormality check for eigenvectors                          DISABLED
 GLOBAL| Matrix multiplication library                                     COSMA
 GLOBAL| All-to-all communication in single precision                          F
 GLOBAL| FFTs using library dependent lengths                                  F
 GLOBAL| Grid backend                                                       AUTO
 GLOBAL| Global print level                                               MEDIUM
 GLOBAL| MPI I/O enabled                                                       T
 GLOBAL| Total number of message passing processes                          1440
 GLOBAL| Number of threads for this process                                    4
 GLOBAL| This output is from process                                           0
 GLOBAL| Stack size for threads created by OpenMP (OMP_STACKSIZE)        default
 GLOBAL| CPU model name                          AMD EPYC 7763 64-Core Processor
 GLOBAL| CPUID                                                              1002
 GLOBAL| Compiled for CPUID                                                    0

 *** HINT in environment.F:882 :: The compiler target flags (generic) used ***
 *** to build this binary cannot exploit all extensions of this CPU model  ***
 *** (x86_avx2). Consider compiler target flags as part of FCFLAGS and     ***
 *** CFLAGS (ARCH file).                                                   ***


 MEMORY| system memory details [Kb]
 MEMORY|                        rank 0           min           max       average
 MEMORY| MemTotal            263914152     263914144     263914156     263914150
 MEMORY| MemFree             239292184     210384080     253609472     244440800
 MEMORY| Buffers                294232         34428        356616        233460
 MEMORY| Cached                8605692       3761644      31428024       6735012
 MEMORY| Slab                  9602860       1547344      15263488       6852376
 MEMORY| SReclaimable           328812        201920        629912        297308
 MEMORY| MemLikelyFree       248520920     242545816     257805600     251706582


 *** Fundamental physical constants (SI units) ***

 *** Literature: B. J. Mohr and B. N. Taylor,
 ***             CODATA recommended values of the fundamental physical
 ***             constants: 2006, Web Version 5.1
 ***             http://physics.nist.gov/constants

 Speed of light in vacuum [m/s]                             2.99792458000000E+08
 Magnetic constant or permeability of vacuum [N/A**2]       1.25663706143592E-06
 Electric constant or permittivity of vacuum [F/m]          8.85418781762039E-12
 Planck constant (h) [J*s]                                  6.62606896000000E-34
 Planck constant (h-bar) [J*s]                              1.05457162825177E-34
 Elementary charge [C]                                      1.60217648700000E-19
 Electron mass [kg]                                         9.10938215000000E-31
 Electron g factor [ ]                                     -2.00231930436220E+00
 Proton mass [kg]                                           1.67262163700000E-27
 Fine-structure constant                                    7.29735253760000E-03
 Rydberg constant [1/m]                                     1.09737315685270E+07
 Avogadro constant [1/mol]                                  6.02214179000000E+23
 Boltzmann constant [J/K]                                   1.38065040000000E-23
 Atomic mass unit [kg]                                      1.66053878200000E-27
 Bohr radius [m]                                            5.29177208590000E-11

 *** Conversion factors ***

 [u] -> [a.u.]                                              1.82288848426455E+03
 [Angstrom] -> [Bohr] = [a.u.]                              1.88972613288564E+00
 [a.u.] = [Bohr] -> [Angstrom]                              5.29177208590000E-01
 [a.u.] -> [s]                                              2.41888432650478E-17
 [a.u.] -> [fs]                                             2.41888432650478E-02
 [a.u.] -> [J]                                              4.35974393937059E-18
 [a.u.] -> [N]                                              8.23872205491840E-08
 [a.u.] -> [K]                                              3.15774647902944E+05
 [a.u.] -> [kJ/mol]                                         2.62549961709828E+03
 [a.u.] -> [kcal/mol]                                       6.27509468713739E+02
 [a.u.] -> [Pa]                                             2.94210107994716E+13
 [a.u.] -> [bar]                                            2.94210107994716E+08
 [a.u.] -> [atm]                                            2.90362800883016E+08
 [a.u.] -> [eV]                                             2.72113838565563E+01
 [a.u.] -> [Hz]                                             6.57968392072181E+15
 [a.u.] -> [1/cm] (wave numbers)                            2.19474631370540E+05
 [a.u./Bohr**2] -> [1/cm]                                   5.14048714338585E+03
 

 CELL_TOP| Volume [angstrom^3]:                                     17324.175000
 CELL_TOP| Vector a [angstrom    36.520     0.000     0.000   |a| =    36.520000
 CELL_TOP| Vector b [angstrom   -18.260    31.625     0.000   |b| =    36.518053
 CELL_TOP| Vector c [angstrom     0.000     0.000    15.000   |c| =    15.000000
 CELL_TOP| Angle (b,c), alpha [degree]:                                90.000000
 CELL_TOP| Angle (a,c), beta  [degree]:                                90.000000
 CELL_TOP| Angle (a,b), gamma [degree]:                               120.001763
 CELL_TOP| Numerically orthorhombic:                                          NO
 CELL_TOP| Periodicity                                                        XY

 CELL_UC| Volume [angstrom^3]:                                        143.175000
 CELL_UC| Vector a [angstrom]     3.320     0.000     0.000   |a| =     3.320000
 CELL_UC| Vector b [angstrom]    -1.660     2.875     0.000   |b| =     3.319823
 CELL_UC| Vector c [angstrom]     0.000     0.000    15.000   |c| =    15.000000
 CELL_UC| Angle (b,c), alpha [degree]:                                 90.000000
 CELL_UC| Angle (a,c), beta  [degree]:                                 90.000000
 CELL_UC| Angle (a,b), gamma [degree]:                                120.001763
 CELL_UC| Numerically orthorhombic:                                           NO
 CELL_UC| Periodicity                                                         XY

 GENERATE|  Preliminary Number of Bonds generated:                             0
 GENERATE|  Achieved consistency in connectivity generation.

 CELL| Volume [angstrom^3]:                                         17324.175000
 CELL| Vector a [angstrom]:      36.520     0.000     0.000   |a| =    36.520000
 CELL| Vector b [angstrom]:     -18.260    31.625     0.000   |b| =    36.518053
 CELL| Vector c [angstrom]:       0.000     0.000    15.000   |c| =    15.000000
 CELL| Angle (b,c), alpha [degree]:                                    90.000000
 CELL| Angle (a,c), beta  [degree]:                                    90.000000
 CELL| Angle (a,b), gamma [degree]:                                   120.001763
 CELL| Numerically orthorhombic:                                              NO
 CELL| Periodicity                                                            XY

 CELL_REF| Volume [angstrom^3]:                                     17324.175000
 CELL_REF| Vector a [angstrom    36.520     0.000     0.000   |a| =    36.520000
 CELL_REF| Vector b [angstrom   -18.260    31.625     0.000   |b| =    36.518053
 CELL_REF| Vector c [angstrom     0.000     0.000    15.000   |c| =    15.000000
 CELL_REF| Angle (b,c), alpha [degree]:                                90.000000
 CELL_REF| Angle (a,c), beta  [degree]:                                90.000000
 CELL_REF| Angle (a,b), gamma [degree]:                               120.001763
 CELL_REF| Numerically orthorhombic:                                          NO
 CELL_REF| Periodicity                                                        XY

 *******************************************************************************
 *******************************************************************************
 **                                                                           **
 **     #####                         ##              ##                      **
 **    ##   ##            ##          ##              ##                      **
 **   ##     ##                       ##            ######                    **
 **   ##     ##  ##   ##  ##   #####  ##  ##   ####   ##    #####    #####    **
 **   ##     ##  ##   ##  ##  ##      ## ##   ##      ##   ##   ##  ##   ##   **
 **   ##  ## ##  ##   ##  ##  ##      ####     ###    ##   ######   ######    **
 **    ##  ###   ##   ##  ##  ##      ## ##      ##   ##   ##       ##        **
 **     #######   #####   ##   #####  ##  ##  ####    ##    #####   ##        **
 **           ##                                                    ##        **
 **                                                                           **
 **                                                ... make the atoms dance   **
 **                                                                           **
 **            Copyright (C) by CP2K developers group (2000-2023)             **
 **                      J. Chem. Phys. 152, 194103 (2020)                    **
 **                                                                           **
 *******************************************************************************

 DFT| Spin restricted Kohn-Sham (RKS) calculation                            RKS
 DFT| Multiplicity                                                             1
 DFT| Number of spin states                                                    1
 DFT| Charge                                                                   0
 DFT| Self-interaction correction (SIC)                                       NO
 DFT| Cutoffs: density                                              1.000000E-10
 DFT|          gradient                                             1.000000E-10
 DFT|          tau                                                  1.000000E-10
 DFT|          cutoff_smoothing_range                               0.000000E+00
 DFT| XC density smoothing                                                  NONE
 DFT| XC derivatives                                                          PW

 FUNCTIONAL| PADE:
 FUNCTIONAL| S. Goedecker, M. Teter and J. Hutter, Phys. Rev. B 54, 1703 (1996) 


 QS| Method:                                                                 GPW
 QS| Density plane wave grid type                        NON-SPHERICAL FULLSPACE
 QS| Number of grid levels:                                                    4
 QS| Density cutoff [a.u.]:                                                250.0
 QS| Multi grid cutoff [a.u.]: 1) grid level                               250.0
 QS|                           2) grid level                                83.3
 QS|                           3) grid level                                27.8
 QS|                           4) grid level                                 9.3
 QS| Grid level progression factor:                                          3.0
 QS| Relative density cutoff [a.u.]:                                        50.0
 QS| Interaction thresholds: eps_pgf_orb:                                1.0E-40
 QS|                         eps_filter_matrix:                          0.0E+00
 QS|                         eps_core_charge:                            1.0E-42
 QS|                         eps_rho_gspace:                             1.0E-40
 QS|                         eps_rho_rspace:                             1.0E-40
 QS|                         eps_gvg_rspace:                             1.0E-20
 QS|                         eps_ppl:                                    1.0E-02
 QS|                         eps_ppnl:                                   1.0E-22


 ATOMIC KIND INFORMATION

  1. Atomic kind: Mo                                    Number of atoms:     121

     Orbital Basis Set                                        TZVP-MOLOPT-SR-GTH

       Number of orbital shell sets:                                           1
       Number of orbital shells:                                              11
       Number of primitive Cartesian functions:                                7
       Number of Cartesian basis functions:                                   41
       Number of spherical basis functions:                                   35
       Norm type:                                                              2

       Normalised Cartesian orbitals:

                        Set   Shell   Orbital            Exponent    Coefficient

                          1       1    2s                2.540273      -1.347286
                                                         1.999996       0.728128
                                                         0.894040       0.538325
                                                         0.439257       0.138859
                                                         0.189498       0.017388
                                                         0.083802      -0.011271
                                                         0.052949      -0.000447

                          1       2    3s                2.540273       0.117404
                                                         1.999996      -0.257366
                                                         0.894040       0.160976
                                                         0.439257       0.021863
                                                         0.189498      -0.097132
                                                         0.083802      -0.024730
                                                         0.052949      -0.037323

                          1       3    4s                2.540273       0.911432
                                                         1.999996      -3.197513
                                                         0.894040       2.305463
                                                         0.439257      -1.066869
                                                         0.189498       0.281610
                                                         0.083802      -0.247438
                                                         0.052949       0.194863

                          1       4    5s                2.540273       0.190511
                                                         1.999996       0.663305
                                                         0.894040      -0.277779
                                                         0.439257       0.087883
                                                         0.189498      -0.134808
                                                         0.083802      -0.125374
                                                         0.052949       0.060527

                          1       5    3px               2.540273       3.649549
                                                         1.999996      -3.522362
                                                         0.894040      -0.796260
                                                         0.439257      -0.102391
                                                         0.189498       0.030257
                                                         0.083802       0.012043
                                                         0.052949      -0.005551
                          1       5    3py               2.540273       3.649549
                                                         1.999996      -3.522362
                                                         0.894040      -0.796260
                                                         0.439257      -0.102391
                                                         0.189498       0.030257
                                                         0.083802       0.012043
                                                         0.052949      -0.005551
                          1       5    3pz               2.540273       3.649549
                                                         1.999996      -3.522362
                                                         0.894040      -0.796260
                                                         0.439257      -0.102391
                                                         0.189498       0.030257
                                                         0.083802       0.012043
                                                         0.052949      -0.005551

                          1       6    4px               2.540273       0.130676
                                                         1.999996       0.100306
                                                         0.894040      -0.137933
                                                         0.439257      -0.038630
                                                         0.189498      -0.100430
                                                         0.083802      -0.009149
                                                         0.052949      -0.010276
                          1       6    4py               2.540273       0.130676
                                                         1.999996       0.100306
                                                         0.894040      -0.137933
                                                         0.439257      -0.038630
                                                         0.189498      -0.100430
                                                         0.083802      -0.009149
                                                         0.052949      -0.010276
                          1       6    4pz               2.540273       0.130676
                                                         1.999996       0.100306
                                                         0.894040      -0.137933
                                                         0.439257      -0.038630
                                                         0.189498      -0.100430
                                                         0.083802      -0.009149
                                                         0.052949      -0.010276

                          1       7    5px               2.540273       0.518415
                                                         1.999996       0.049290
                                                         0.894040      -0.003513
                                                         0.439257      -0.436181
                                                         0.189498      -0.029910
                                                         0.083802      -0.032193
                                                         0.052949       0.029939
                          1       7    5py               2.540273       0.518415
                                                         1.999996       0.049290
                                                         0.894040      -0.003513
                                                         0.439257      -0.436181
                                                         0.189498      -0.029910
                                                         0.083802      -0.032193
                                                         0.052949       0.029939
                          1       7    5pz               2.540273       0.518415
                                                         1.999996       0.049290
                                                         0.894040      -0.003513
                                                         0.439257      -0.436181
                                                         0.189498      -0.029910
                                                         0.083802      -0.032193
                                                         0.052949       0.029939

                          1       8    4dx2              2.540273      -1.446942
                                                         1.999996       1.845373
                                                         0.894040       0.335548
                                                         0.439257       0.133939
                                                         0.189498       0.030529
                                                         0.083802       0.002068
                                                         0.052949       0.000807
                          1       8    4dxy              2.540273      -2.506177
                                                         1.999996       3.196279
                                                         0.894040       0.581186
                                                         0.439257       0.231990
                                                         0.189498       0.052877
                                                         0.083802       0.003582
                                                         0.052949       0.001398
                          1       8    4dxz              2.540273      -2.506177
                                                         1.999996       3.196279
                                                         0.894040       0.581186
                                                         0.439257       0.231990
                                                         0.189498       0.052877
                                                         0.083802       0.003582
                                                         0.052949       0.001398
                          1       8    4dy2              2.540273      -1.446942
                                                         1.999996       1.845373
                                                         0.894040       0.335548
                                                         0.439257       0.133939
                                                         0.189498       0.030529
                                                         0.083802       0.002068
                                                         0.052949       0.000807
                          1       8    4dyz              2.540273      -2.506177
                                                         1.999996       3.196279
                                                         0.894040       0.581186
                                                         0.439257       0.231990
                                                         0.189498       0.052877
                                                         0.083802       0.003582
                                                         0.052949       0.001398
                          1       8    4dz2              2.540273      -1.446942
                                                         1.999996       1.845373
                                                         0.894040       0.335548
                                                         0.439257       0.133939
                                                         0.189498       0.030529
                                                         0.083802       0.002068
                                                         0.052949       0.000807

                          1       9    5dx2              2.540273       1.183516
                                                         1.999996      -1.496893
                                                         0.894040      -0.288851
                                                         0.439257      -0.115873
                                                         0.189498       0.057412
                                                         0.083802       0.002105
                                                         0.052949       0.004748
                          1       9    5dxy              2.540273       2.049910
                                                         1.999996      -2.592694
                                                         0.894040      -0.500305
                                                         0.439257      -0.200698
                                                         0.189498       0.099440
                                                         0.083802       0.003646
                                                         0.052949       0.008223
                          1       9    5dxz              2.540273       2.049910
                                                         1.999996      -2.592694
                                                         0.894040      -0.500305
                                                         0.439257      -0.200698
                                                         0.189498       0.099440
                                                         0.083802       0.003646
                                                         0.052949       0.008223
                          1       9    5dy2              2.540273       1.183516
                                                         1.999996      -1.496893
                                                         0.894040      -0.288851
                                                         0.439257      -0.115873
                                                         0.189498       0.057412
                                                         0.083802       0.002105
                                                         0.052949       0.004748
                          1       9    5dyz              2.540273       2.049910
                                                         1.999996      -2.592694
                                                         0.894040      -0.500305
                                                         0.439257      -0.200698
                                                         0.189498       0.099440
                                                         0.083802       0.003646
                                                         0.052949       0.008223
                          1       9    5dz2              2.540273       1.183516
                                                         1.999996      -1.496893
                                                         0.894040      -0.288851
                                                         0.439257      -0.115873
                                                         0.189498       0.057412
                                                         0.083802       0.002105
                                                         0.052949       0.004748

                          1      10    6dx2              2.540273       0.180795
                                                         1.999996       0.220695
                                                         0.894040       1.401603
                                                         0.439257      -0.205481
                                                         0.189498      -0.008824
                                                         0.083802      -0.020282
                                                         0.052949       0.004446
                          1      10    6dxy              2.540273       0.313146
                                                         1.999996       0.382255
                                                         0.894040       2.427647
                                                         0.439257      -0.355904
                                                         0.189498      -0.015284
                                                         0.083802      -0.035129
                                                         0.052949       0.007700
                          1      10    6dxz              2.540273       0.313146
                                                         1.999996       0.382255
                                                         0.894040       2.427647
                                                         0.439257      -0.355904
                                                         0.189498      -0.015284
                                                         0.083802      -0.035129
                                                         0.052949       0.007700
                          1      10    6dy2              2.540273       0.180795
                                                         1.999996       0.220695
                                                         0.894040       1.401603
                                                         0.439257      -0.205481
                                                         0.189498      -0.008824
                                                         0.083802      -0.020282
                                                         0.052949       0.004446
                          1      10    6dyz              2.540273       0.313146
                                                         1.999996       0.382255
                                                         0.894040       2.427647
                                                         0.439257      -0.355904
                                                         0.189498      -0.015284
                                                         0.083802      -0.035129
                                                         0.052949       0.007700
                          1      10    6dz2              2.540273       0.180795
                                                         1.999996       0.220695
                                                         0.894040       1.401603
                                                         0.439257      -0.205481
                                                         0.189498      -0.008824
                                                         0.083802      -0.020282
                                                         0.052949       0.004446

                          1      11    5fx3              2.540273       0.800295
                                                         1.999996      -0.726100
                                                         0.894040      -0.319551
                                                         0.439257      -0.112926
                                                         0.189498      -0.010366
                                                         0.083802      -0.000580
                                                         0.052949      -0.000060
                          1      11    5fx2y             2.540273       1.789514
                                                         1.999996      -1.623609
                                                         0.894040      -0.714538
                                                         0.439257      -0.252510
                                                         0.189498      -0.023179
                                                         0.083802      -0.001296
                                                         0.052949      -0.000134
                          1      11    5fx2z             2.540273       1.789514
                                                         1.999996      -1.623609
                                                         0.894040      -0.714538
                                                         0.439257      -0.252510
                                                         0.189498      -0.023179
                                                         0.083802      -0.001296
                                                         0.052949      -0.000134
                          1      11    5fxy2             2.540273       1.789514
                                                         1.999996      -1.623609
                                                         0.894040      -0.714538
                                                         0.439257      -0.252510
                                                         0.189498      -0.023179
                                                         0.083802      -0.001296
                                                         0.052949      -0.000134
                          1      11    5fxyz             2.540273       3.099529
                                                         1.999996      -2.812174
                                                         0.894040      -1.237616
                                                         0.439257      -0.437359
                                                         0.189498      -0.040147
                                                         0.083802      -0.002245
                                                         0.052949      -0.000233
                          1      11    5fxz2             2.540273       1.789514
                                                         1.999996      -1.623609
                                                         0.894040      -0.714538
                                                         0.439257      -0.252510
                                                         0.189498      -0.023179
                                                         0.083802      -0.001296
                                                         0.052949      -0.000134
                          1      11    5fy3              2.540273       0.800295
                                                         1.999996      -0.726100
                                                         0.894040      -0.319551
                                                         0.439257      -0.112926
                                                         0.189498      -0.010366
                                                         0.083802      -0.000580
                                                         0.052949      -0.000060
                          1      11    5fy2z             2.540273       1.789514
                                                         1.999996      -1.623609
                                                         0.894040      -0.714538
                                                         0.439257      -0.252510
                                                         0.189498      -0.023179
                                                         0.083802      -0.001296
                                                         0.052949      -0.000134
                          1      11    5fyz2             2.540273       1.789514
                                                         1.999996      -1.623609
                                                         0.894040      -0.714538
                                                         0.439257      -0.252510
                                                         0.189498      -0.023179
                                                         0.083802      -0.001296
                                                         0.052949      -0.000134
                          1      11    5fz3              2.540273       0.800295
                                                         1.999996      -0.726100
                                                         0.894040      -0.319551
                                                         0.439257      -0.112926
                                                         0.189498      -0.010366
                                                         0.083802      -0.000580
                                                         0.052949      -0.000060

     RI Auxiliary Basis Set                                 def2-SVP-RIFIT-mod-2

       Number of orbital shell sets:                                          17
       Number of orbital shells:                                              17
       Number of primitive Cartesian functions:                               17
       Number of Cartesian basis functions:                                   91
       Number of spherical basis functions:                                   69
       Norm type:                                                              2

       Normalised Cartesian orbitals:

                        Set   Shell   Orbital            Exponent    Coefficient

                          1       1    1s                0.185545       0.201487

                          2       1    1px               0.223731       0.219330
                          2       1    1py               0.223731       0.219330
                          2       1    1pz               0.223731       0.219330

                          3       1    1dx2              0.346956       0.258160
                          3       1    1dxy              0.346956       0.447147
                          3       1    1dxz              0.346956       0.447147
                          3       1    1dy2              0.346956       0.258160
                          3       1    1dyz              0.346956       0.447147
                          3       1    1dz2              0.346956       0.258160

                          4       1    1s                0.360392       0.331506

                          5       1    1fx3              0.410523       0.198593
                          5       1    1fx2y             0.410523       0.444066
                          5       1    1fx2z             0.410523       0.444066
                          5       1    1fxy2             0.410523       0.444066
                          5       1    1fxyz             0.410523       0.769146
                          5       1    1fxz2             0.410523       0.444066
                          5       1    1fy3              0.410523       0.198593
                          5       1    1fy2z             0.410523       0.444066
                          5       1    1fyz2             0.410523       0.444066
                          5       1    1fz3              0.410523       0.198593

                          6       1    1px               0.498778       0.597481
                          6       1    1py               0.498778       0.597481
                          6       1    1pz               0.498778       0.597481

                          7       1    1gx4              0.570000       0.237187
                          7       1    1gx3y             0.570000       0.627538
                          7       1    1gx3z             0.570000       0.627538
                          7       1    1gx2y2            0.570000       0.810149
                          7       1    1gx2yz            0.570000       1.403218
                          7       1    1gx2z2            0.570000       0.810149
                          7       1    1gxy3             0.570000       0.627538
                          7       1    1gxy2z            0.570000       1.403218
                          7       1    1gxyz2            0.570000       1.403218
                          7       1    1gxz3             0.570000       0.627538
                          7       1    1gy4              0.570000       0.237187
                          7       1    1gy3z             0.570000       0.627538
                          7       1    1gy2z2            0.570000       0.810149
                          7       1    1gyz3             0.570000       0.627538
                          7       1    1gz4              0.570000       0.237187

                          8       1    1dx2              0.576698       0.628158
                          8       1    1dxy              0.576698       1.088002
                          8       1    1dxz              0.576698       1.088002
                          8       1    1dy2              0.576698       0.628158
                          8       1    1dyz              0.576698       1.088002
                          8       1    1dz2              0.576698       0.628158

                          9       1    1s                0.619083       0.497418

                         10       1    1s                1.092167       0.761424

                         11       1    1fx3              1.103628       1.837832
                         11       1    1fx2y             1.103628       4.109516
                         11       1    1fx2z             1.103628       4.109516
                         11       1    1fxy2             1.103628       4.109516
                         11       1    1fxyz             1.103628       7.117891
                         11       1    1fxz2             1.103628       4.109516
                         11       1    1fy3              1.103628       1.837832
                         11       1    1fy2z             1.103628       4.109516
                         11       1    1fyz2             1.103628       4.109516
                         11       1    1fz3              1.103628       1.837832

                         12       1    1px               1.390701       2.152694
                         12       1    1py               1.390701       2.152694
                         12       1    1pz               1.390701       2.152694

                         13       1    1dx2              1.439171       3.112475
                         13       1    1dxy              1.439171       5.390965
                         13       1    1dxz              1.439171       5.390965
                         13       1    1dy2              1.439171       3.112475
                         13       1    1dyz              1.439171       5.390965
                         13       1    1dz2              1.439171       3.112475

                         14       1    1gx4              1.615953       4.164995
                         14       1    1gx3y             1.615953      11.019542
                         14       1    1gx3z             1.615953      11.019542
                         14       1    1gx2y2            1.615953      14.226167
                         14       1    1gx2yz            1.615953      24.640444
                         14       1    1gx2z2            1.615953      14.226167
                         14       1    1gxy3             1.615953      11.019542
                         14       1    1gxy2z            1.615953      24.640444
                         14       1    1gxyz2            1.615953      24.640444
                         14       1    1gxz3             1.615953      11.019542
                         14       1    1gy4              1.615953       4.164995
                         14       1    1gy3z             1.615953      11.019542
                         14       1    1gy2z2            1.615953      14.226167
                         14       1    1gyz3             1.615953      11.019542
                         14       1    1gz4              1.615953       4.164995

                         15       1    1px               2.100661       3.604831
                         15       1    1py               2.100661       3.604831
                         15       1    1pz               2.100661       3.604831

                         16       1    1s                2.197983       1.286555

                         17       1    1dx2              2.302596       7.084198
                         17       1    1dxy              2.302596      12.270190
                         17       1    1dxz              2.302596      12.270190
                         17       1    1dy2              2.302596       7.084198
                         17       1    1dyz              2.302596      12.270190
                         17       1    1dz2              2.302596       7.084198

       Atomic covalent radius [Angstrom]:                                  1.300

       Atomic van der Waals radius [Angstrom]:                             1.670

     GTH Potential information for                                  GTH-PADE-q14

       Description:                       Goedecker-Teter-Hutter pseudopotential
                                           Goedecker et al., PRB 54, 1703 (1996)
                                          Hartwigsen et al., PRB 58, 3641 (1998)
                                                      Krack, TCA 114, 145 (2005)

       Gaussian exponent of the core charge distribution:               2.704164
       Electronic configuration (s p d ...):                           3   6   5

       Parameters of the local part of the GTH pseudopotential:

                          rloc        C1          C2          C3          C4
                        0.430000   16.237452    1.496536

       Parameters of the non-local part of the GTH pseudopotential:

                   l      r(l)      h(i,j,l)

                   0    0.376255    3.362426    2.048528
                                    2.048528   -5.289276
                   1    0.361734   -0.379571    1.718923
                                    1.718923   -4.067713
                   2    0.525828   -1.543211   -0.473760
                                   -0.473760    1.074388

  2. Atomic kind: Se                                    Number of atoms:     242

     Orbital Basis Set                                        TZVP-MOLOPT-SR-GTH

       Number of orbital shell sets:                                           1
       Number of orbital shells:                                               7
       Number of primitive Cartesian functions:                                4
       Number of Cartesian basis functions:                                   18
       Number of spherical basis functions:                                   17
       Norm type:                                                              2

       Normalised Cartesian orbitals:

                        Set   Shell   Orbital            Exponent    Coefficient

                          1       1    2s                1.465689       0.302678
                                                         1.029752      -0.073168
                                                         0.303575      -0.202711
                                                         0.107173      -0.059713

                          1       2    3s                1.465689      -0.155491
                                                         1.029752       0.241663
                                                         0.303575      -0.363851
                                                         0.107173       0.233571

                          1       3    4s                1.465689       1.273873
                                                         1.029752      -0.825574
                                                         0.303575       0.111847
                                                         0.107173       0.081995

                          1       4    3px               1.465689       0.612976
                                                         1.029752      -0.484874
                                                         0.303575      -0.234718
                                                         0.107173      -0.021524
                          1       4    3py               1.465689       0.612976
                                                         1.029752      -0.484874
                                                         0.303575      -0.234718
                                                         0.107173      -0.021524
                          1       4    3pz               1.465689       0.612976
                                                         1.029752      -0.484874
                                                         0.303575      -0.234718
                                                         0.107173      -0.021524

                          1       5    4px               1.465689       0.383325
                                                         1.029752      -0.329453
                                                         0.303575      -0.075164
                                                         0.107173       0.102417
                          1       5    4py               1.465689       0.383325
                                                         1.029752      -0.329453
                                                         0.303575      -0.075164
                                                         0.107173       0.102417
                          1       5    4pz               1.465689       0.383325
                                                         1.029752      -0.329453
                                                         0.303575      -0.075164
                                                         0.107173       0.102417

                          1       6    5px               1.465689       3.760520
                                                         1.029752      -2.704359
                                                         0.303575       0.485527
                                                         0.107173      -0.024362
                          1       6    5py               1.465689       3.760520
                                                         1.029752      -2.704359
                                                         0.303575       0.485527
                                                         0.107173      -0.024362
                          1       6    5pz               1.465689       3.760520
                                                         1.029752      -2.704359
                                                         0.303575       0.485527
                                                         0.107173      -0.024362

                          1       7    4dx2              1.465689       0.513111
                                                         1.029752      -0.664167
                                                         0.303575      -0.134856
                                                         0.107173      -0.008700
                          1       7    4dxy              1.465689       0.888735
                                                         1.029752      -1.150371
                                                         0.303575      -0.233577
                                                         0.107173      -0.015069
                          1       7    4dxz              1.465689       0.888735
                                                         1.029752      -1.150371
                                                         0.303575      -0.233577
                                                         0.107173      -0.015069
                          1       7    4dy2              1.465689       0.513111
                                                         1.029752      -0.664167
                                                         0.303575      -0.134856
                                                         0.107173      -0.008700
                          1       7    4dyz              1.465689       0.888735
                                                         1.029752      -1.150371
                                                         0.303575      -0.233577
                                                         0.107173      -0.015069
                          1       7    4dz2              1.465689       0.513111
                                                         1.029752      -0.664167
                                                         0.303575      -0.134856
                                                         0.107173      -0.008700

     RI Auxiliary Basis Set                                 def2-SVP-RIFIT-mod-3

       Number of orbital shell sets:                                          12
       Number of orbital shells:                                              12
       Number of primitive Cartesian functions:                               12
       Number of Cartesian basis functions:                                   44
       Number of spherical basis functions:                                   38
       Norm type:                                                              2

       Normalised Cartesian orbitals:

                        Set   Shell   Orbital            Exponent    Coefficient

                          1       1    1s                0.228146       0.235272

                          2       1    1dx2              0.255873       0.151514
                          2       1    1dxy              0.255873       0.262430
                          2       1    1dxz              0.255873       0.262430
                          2       1    1dy2              0.255873       0.151514
                          2       1    1dyz              0.255873       0.262430
                          2       1    1dz2              0.255873       0.151514

                          3       1    1px               0.271607       0.279490
                          3       1    1py               0.271607       0.279490
                          3       1    1pz               0.271607       0.279490

                          4       1    1s                0.368618       0.337165

                          5       1    1dx2              0.492940       0.477308
                          5       1    1dxy              0.492940       0.826723
                          5       1    1dxz              0.492940       0.826723
                          5       1    1dy2              0.492940       0.477308
                          5       1    1dyz              0.492940       0.826723
                          5       1    1dz2              0.492940       0.477308

                          6       1    1px               0.522961       0.633908
                          6       1    1py               0.522961       0.633908
                          6       1    1pz               0.522961       0.633908

                          7       1    1s                0.572587       0.469128

                          8       1    1fx3              0.711060       0.683508
                          8       1    1fx2y             0.711060       1.528371
                          8       1    1fx2z             0.711060       1.528371
                          8       1    1fxy2             0.711060       1.528371
                          8       1    1fxyz             0.711060       2.647216
                          8       1    1fxz2             0.711060       1.528371
                          8       1    1fy3              0.711060       0.683508
                          8       1    1fy2z             0.711060       1.528371
                          8       1    1fyz2             0.711060       1.528371
                          8       1    1fz3              0.711060       0.683508

                          9       1    1px               1.002555       1.429965
                          9       1    1py               1.002555       1.429965
                          9       1    1pz               1.002555       1.429965

                         10       1    1dx2              1.339632       2.745579
                         10       1    1dxy              1.339632       4.755483
                         10       1    1dxz              1.339632       4.755483
                         10       1    1dy2              1.339632       2.745579
                         10       1    1dyz              1.339632       4.755483
                         10       1    1dz2              1.339632       2.745579

                         11       1    1px               1.705131       2.777392
                         11       1    1py               1.705131       2.777392
                         11       1    1pz               1.705131       2.777392

                         12       1    1s                2.077977       1.233504

       Atomic covalent radius [Angstrom]:                                  1.160

       Atomic van der Waals radius [Angstrom]:                             1.900

     GTH Potential information for                                   GTH-PADE-q6

       Description:                       Goedecker-Teter-Hutter pseudopotential
                                           Goedecker et al., PRB 54, 1703 (1996)
                                          Hartwigsen et al., PRB 58, 3641 (1998)
                                                      Krack, TCA 114, 145 (2005)

       Gaussian exponent of the core charge distribution:               1.922338
       Electronic configuration (s p d ...):                               2   4

       Parameters of the local part of the GTH pseudopotential:

                          rloc        C1          C2          C3          C4
                        0.510000

       Parameters of the non-local part of the GTH pseudopotential:

                   l      r(l)      h(i,j,l)

                   0    0.432531    5.145131   -0.794740   -0.334051
                                   -0.794740    2.052009    0.862517
                                   -0.334051    0.862517   -1.369203
                   1    0.472473    2.858806    0.249604
                                    0.249604   -0.590670
                   2    0.613420    0.434829


 MOLECULE KIND INFORMATION


 All atoms are their own molecule, skipping detailed information


 TOTAL NUMBERS AND MAXIMUM NUMBERS

  Total number of            - Atomic kinds:                                   2
                             - Atoms:                                        363
                             - Shell sets:                                   363
                             - Shells:                                      3025
                             - Primitive Cartesian functions:               1815
                             - Cartesian basis functions:                   9317
                             - Spherical basis functions:                   8349

  Maximum angular momentum of- Orbital basis functions:                        3
                             - Local part of the GTH pseudopotential:          2
                             - Non-local part of the GTH pseudopotential:      4


 MODULE QUICKSTEP: ATOMIC COORDINATES IN ANGSTROM

   Atom Kind Element         X             Y             Z       Z(eff)     Mass
      1    1 Mo   42      0.000000      0.000000      7.169029  14.0000  95.9600
      2    2 Se   34      1.659874      0.958329      8.838059   6.0000  78.9600
      3    2 Se   34      1.659874      0.958329      5.500000   6.0000  78.9600
      4    1 Mo   42      3.320000      0.000000      7.169029  14.0000  95.9600
      5    2 Se   34      4.979874      0.958329      8.838059   6.0000  78.9600
      6    2 Se   34      4.979874      0.958329      5.500000   6.0000  78.9600
      7    1 Mo   42      6.640000      0.000000      7.169029  14.0000  95.9600
      8    2 Se   34      8.299874      0.958329      8.838059   6.0000  78.9600
      9    2 Se   34      8.299874      0.958329      5.500000   6.0000  78.9600
     10    1 Mo   42      9.960000      0.000000      7.169029  14.0000  95.9600
     11    2 Se   34     11.619874      0.958329      8.838059   6.0000  78.9600
     12    2 Se   34     11.619874      0.958329      5.500000   6.0000  78.9600
     13    1 Mo   42     13.280000      0.000000      7.169029  14.0000  95.9600
     14    2 Se   34     14.939874      0.958329      8.838059   6.0000  78.9600
     15    2 Se   34     14.939874      0.958329      5.500000   6.0000  78.9600
     16    1 Mo   42     16.600000      0.000000      7.169029  14.0000  95.9600
     17    2 Se   34     18.259874      0.958329      8.838059   6.0000  78.9600
     18    2 Se   34     18.259874      0.958329      5.500000   6.0000  78.9600
     19    1 Mo   42     19.920000      0.000000      7.169029  14.0000  95.9600
     20    2 Se   34     21.579874      0.958329      8.838059   6.0000  78.9600
     21    2 Se   34     21.579874      0.958329      5.500000   6.0000  78.9600
     22    1 Mo   42     23.240000      0.000000      7.169029  14.0000  95.9600
     23    2 Se   34     24.899874      0.958329      8.838059   6.0000  78.9600
     24    2 Se   34     24.899874      0.958329      5.500000   6.0000  78.9600
     25    1 Mo   42     26.560000      0.000000      7.169029  14.0000  95.9600
     26    2 Se   34     28.219874      0.958329      8.838059   6.0000  78.9600
     27    2 Se   34     28.219874      0.958329      5.500000   6.0000  78.9600
     28    1 Mo   42     29.880000      0.000000      7.169029  14.0000  95.9600
     29    2 Se   34     31.539874      0.958329      8.838059   6.0000  78.9600
     30    2 Se   34     31.539874      0.958329      5.500000   6.0000  78.9600
     31    1 Mo   42     33.200000      0.000000      7.169029  14.0000  95.9600
     32    2 Se   34     34.859874      0.958329      8.838059   6.0000  78.9600
     33    2 Se   34     34.859874      0.958329      5.500000   6.0000  78.9600
     34    1 Mo   42     -1.660000      2.875000      7.169029  14.0000  95.9600
     35    2 Se   34     -0.000126      3.833329      8.838059   6.0000  78.9600
     36    2 Se   34     -0.000126      3.833329      5.500000   6.0000  78.9600
     37    1 Mo   42      1.660000      2.875000      7.169029  14.0000  95.9600
     38    2 Se   34      3.319874      3.833329      8.838059   6.0000  78.9600
     39    2 Se   34      3.319874      3.833329      5.500000   6.0000  78.9600
     40    1 Mo   42      4.980000      2.875000      7.169029  14.0000  95.9600
     41    2 Se   34      6.639874      3.833329      8.838059   6.0000  78.9600
     42    2 Se   34      6.639874      3.833329      5.500000   6.0000  78.9600
     43    1 Mo   42      8.300000      2.875000      7.169029  14.0000  95.9600
     44    2 Se   34      9.959874      3.833329      8.838059   6.0000  78.9600
     45    2 Se   34      9.959874      3.833329      5.500000   6.0000  78.9600
     46    1 Mo   42     11.620000      2.875000      7.169029  14.0000  95.9600
     47    2 Se   34     13.279874      3.833329      8.838059   6.0000  78.9600
     48    2 Se   34     13.279874      3.833329      5.500000   6.0000  78.9600
     49    1 Mo   42     14.940000      2.875000      7.169029  14.0000  95.9600
     50    2 Se   34     16.599874      3.833329      8.838059   6.0000  78.9600
     51    2 Se   34     16.599874      3.833329      5.500000   6.0000  78.9600
     52    1 Mo   42     18.260000      2.875000      7.169029  14.0000  95.9600
     53    2 Se   34     19.919874      3.833329      8.838059   6.0000  78.9600
     54    2 Se   34     19.919874      3.833329      5.500000   6.0000  78.9600
     55    1 Mo   42     21.580000      2.875000      7.169029  14.0000  95.9600
     56    2 Se   34     23.239874      3.833329      8.838059   6.0000  78.9600
     57    2 Se   34     23.239874      3.833329      5.500000   6.0000  78.9600
     58    1 Mo   42     24.900000      2.875000      7.169029  14.0000  95.9600
     59    2 Se   34     26.559874      3.833329      8.838059   6.0000  78.9600
     60    2 Se   34     26.559874      3.833329      5.500000   6.0000  78.9600
     61    1 Mo   42     28.220000      2.875000      7.169029  14.0000  95.9600
     62    2 Se   34     29.879874      3.833329      8.838059   6.0000  78.9600
     63    2 Se   34     29.879874      3.833329      5.500000   6.0000  78.9600
     64    1 Mo   42     31.540000      2.875000      7.169029  14.0000  95.9600
     65    2 Se   34     33.199874      3.833329      8.838059   6.0000  78.9600
     66    2 Se   34     33.199874      3.833329      5.500000   6.0000  78.9600
     67    1 Mo   42     -3.320000      5.750000      7.169029  14.0000  95.9600
     68    2 Se   34     -1.660126      6.708329      8.838059   6.0000  78.9600
     69    2 Se   34     -1.660126      6.708329      5.500000   6.0000  78.9600
     70    1 Mo   42      0.000000      5.750000      7.169029  14.0000  95.9600
     71    2 Se   34      1.659874      6.708329      8.838059   6.0000  78.9600
     72    2 Se   34      1.659874      6.708329      5.500000   6.0000  78.9600
     73    1 Mo   42      3.320000      5.750000      7.169029  14.0000  95.9600
     74    2 Se   34      4.979874      6.708329      8.838059   6.0000  78.9600
     75    2 Se   34      4.979874      6.708329      5.500000   6.0000  78.9600
     76    1 Mo   42      6.640000      5.750000      7.169029  14.0000  95.9600
     77    2 Se   34      8.299874      6.708329      8.838059   6.0000  78.9600
     78    2 Se   34      8.299874      6.708329      5.500000   6.0000  78.9600
     79    1 Mo   42      9.960000      5.750000      7.169029  14.0000  95.9600
     80    2 Se   34     11.619874      6.708329      8.838059   6.0000  78.9600
     81    2 Se   34     11.619874      6.708329      5.500000   6.0000  78.9600
     82    1 Mo   42     13.280000      5.750000      7.169029  14.0000  95.9600
     83    2 Se   34     14.939874      6.708329      8.838059   6.0000  78.9600
     84    2 Se   34     14.939874      6.708329      5.500000   6.0000  78.9600
     85    1 Mo   42     16.600000      5.750000      7.169029  14.0000  95.9600
     86    2 Se   34     18.259874      6.708329      8.838059   6.0000  78.9600
     87    2 Se   34     18.259874      6.708329      5.500000   6.0000  78.9600
     88    1 Mo   42     19.920000      5.750000      7.169029  14.0000  95.9600
     89    2 Se   34     21.579874      6.708329      8.838059   6.0000  78.9600
     90    2 Se   34     21.579874      6.708329      5.500000   6.0000  78.9600
     91    1 Mo   42     23.240000      5.750000      7.169029  14.0000  95.9600
     92    2 Se   34     24.899874      6.708329      8.838059   6.0000  78.9600
     93    2 Se   34     24.899874      6.708329      5.500000   6.0000  78.9600
     94    1 Mo   42     26.560000      5.750000      7.169029  14.0000  95.9600
     95    2 Se   34     28.219874      6.708329      8.838059   6.0000  78.9600
     96    2 Se   34     28.219874      6.708329      5.500000   6.0000  78.9600
     97    1 Mo   42     29.880000      5.750000      7.169029  14.0000  95.9600
     98    2 Se   34     31.539874      6.708329      8.838059   6.0000  78.9600
     99    2 Se   34     31.539874      6.708329      5.500000   6.0000  78.9600
    100    1 Mo   42     -4.980000      8.625000      7.169029  14.0000  95.9600
    101    2 Se   34     -3.320126      9.583329      8.838059   6.0000  78.9600
    102    2 Se   34     -3.320126      9.583329      5.500000   6.0000  78.9600
    103    1 Mo   42     -1.660000      8.625000      7.169029  14.0000  95.9600
    104    2 Se   34     -0.000126      9.583329      8.838059   6.0000  78.9600
    105    2 Se   34     -0.000126      9.583329      5.500000   6.0000  78.9600
    106    1 Mo   42      1.660000      8.625000      7.169029  14.0000  95.9600
    107    2 Se   34      3.319874      9.583329      8.838059   6.0000  78.9600
    108    2 Se   34      3.319874      9.583329      5.500000   6.0000  78.9600
    109    1 Mo   42      4.980000      8.625000      7.169029  14.0000  95.9600
    110    2 Se   34      6.639874      9.583329      8.838059   6.0000  78.9600
    111    2 Se   34      6.639874      9.583329      5.500000   6.0000  78.9600
    112    1 Mo   42      8.300000      8.625000      7.169029  14.0000  95.9600
    113    2 Se   34      9.959874      9.583329      8.838059   6.0000  78.9600
    114    2 Se   34      9.959874      9.583329      5.500000   6.0000  78.9600
    115    1 Mo   42     11.620000      8.625000      7.169029  14.0000  95.9600
    116    2 Se   34     13.279874      9.583329      8.838059   6.0000  78.9600
    117    2 Se   34     13.279874      9.583329      5.500000   6.0000  78.9600
    118    1 Mo   42     14.940000      8.625000      7.169029  14.0000  95.9600
    119    2 Se   34     16.599874      9.583329      8.838059   6.0000  78.9600
    120    2 Se   34     16.599874      9.583329      5.500000   6.0000  78.9600
    121    1 Mo   42     18.260000      8.625000      7.169029  14.0000  95.9600
    122    2 Se   34     19.919874      9.583329      8.838059   6.0000  78.9600
    123    2 Se   34     19.919874      9.583329      5.500000   6.0000  78.9600
    124    1 Mo   42     21.580000      8.625000      7.169029  14.0000  95.9600
    125    2 Se   34     23.239874      9.583329      8.838059   6.0000  78.9600
    126    2 Se   34     23.239874      9.583329      5.500000   6.0000  78.9600
    127    1 Mo   42     24.900000      8.625000      7.169029  14.0000  95.9600
    128    2 Se   34     26.559874      9.583329      8.838059   6.0000  78.9600
    129    2 Se   34     26.559874      9.583329      5.500000   6.0000  78.9600
    130    1 Mo   42     28.220000      8.625000      7.169029  14.0000  95.9600
    131    2 Se   34     29.879874      9.583329      8.838059   6.0000  78.9600
    132    2 Se   34     29.879874      9.583329      5.500000   6.0000  78.9600
    133    1 Mo   42     -6.640000     11.500000      7.169029  14.0000  95.9600
    134    2 Se   34     -4.980126     12.458329      8.838059   6.0000  78.9600
    135    2 Se   34     -4.980126     12.458329      5.500000   6.0000  78.9600
    136    1 Mo   42     -3.320000     11.500000      7.169029  14.0000  95.9600
    137    2 Se   34     -1.660126     12.458329      8.838059   6.0000  78.9600
    138    2 Se   34     -1.660126     12.458329      5.500000   6.0000  78.9600
    139    1 Mo   42      0.000000     11.500000      7.169029  14.0000  95.9600
    140    2 Se   34      1.659874     12.458329      8.838059   6.0000  78.9600
    141    2 Se   34      1.659874     12.458329      5.500000   6.0000  78.9600
    142    1 Mo   42      3.320000     11.500000      7.169029  14.0000  95.9600
    143    2 Se   34      4.979874     12.458329      8.838059   6.0000  78.9600
    144    2 Se   34      4.979874     12.458329      5.500000   6.0000  78.9600
    145    1 Mo   42      6.640000     11.500000      7.169029  14.0000  95.9600
    146    2 Se   34      8.299874     12.458329      8.838059   6.0000  78.9600
    147    2 Se   34      8.299874     12.458329      5.500000   6.0000  78.9600
    148    1 Mo   42      9.960000     11.500000      7.169029  14.0000  95.9600
    149    2 Se   34     11.619874     12.458329      8.838059   6.0000  78.9600
    150    2 Se   34     11.619874     12.458329      5.500000   6.0000  78.9600
    151    1 Mo   42     13.280000     11.500000      7.169029  14.0000  95.9600
    152    2 Se   34     14.939874     12.458329      8.838059   6.0000  78.9600
    153    2 Se   34     14.939874     12.458329      5.500000   6.0000  78.9600
    154    1 Mo   42     16.600000     11.500000      7.169029  14.0000  95.9600
    155    2 Se   34     18.259874     12.458329      8.838059   6.0000  78.9600
    156    2 Se   34     18.259874     12.458329      5.500000   6.0000  78.9600
    157    1 Mo   42     19.920000     11.500000      7.169029  14.0000  95.9600
    158    2 Se   34     21.579874     12.458329      8.838059   6.0000  78.9600
    159    2 Se   34     21.579874     12.458329      5.500000   6.0000  78.9600
    160    1 Mo   42     23.240000     11.500000      7.169029  14.0000  95.9600
    161    2 Se   34     24.899874     12.458329      8.838059   6.0000  78.9600
    162    2 Se   34     24.899874     12.458329      5.500000   6.0000  78.9600
    163    1 Mo   42     26.560000     11.500000      7.169029  14.0000  95.9600
    164    2 Se   34     28.219874     12.458329      8.838059   6.0000  78.9600
    165    2 Se   34     28.219874     12.458329      5.500000   6.0000  78.9600
    166    1 Mo   42     -8.300000     14.375000      7.169029  14.0000  95.9600
    167    2 Se   34     -6.640126     15.333329      8.838059   6.0000  78.9600
    168    2 Se   34     -6.640126     15.333329      5.500000   6.0000  78.9600
    169    1 Mo   42     -4.980000     14.375000      7.169029  14.0000  95.9600
    170    2 Se   34     -3.320126     15.333329      8.838059   6.0000  78.9600
    171    2 Se   34     -3.320126     15.333329      5.500000   6.0000  78.9600
    172    1 Mo   42     -1.660000     14.375000      7.169029  14.0000  95.9600
    173    2 Se   34     -0.000126     15.333329      8.838059   6.0000  78.9600
    174    2 Se   34     -0.000126     15.333329      5.500000   6.0000  78.9600
    175    1 Mo   42      1.660000     14.375000      7.169029  14.0000  95.9600
    176    2 Se   34      3.319874     15.333329      8.838059   6.0000  78.9600
    177    2 Se   34      3.319874     15.333329      5.500000   6.0000  78.9600
    178    1 Mo   42      4.980000     14.375000      7.169029  14.0000  95.9600
    179    2 Se   34      6.639874     15.333329      8.838059   6.0000  78.9600
    180    2 Se   34      6.639874     15.333329      5.500000   6.0000  78.9600
    181    1 Mo   42      8.300000     14.375000      7.169029  14.0000  95.9600
    182    2 Se   34      9.959874     15.333329      8.838059   6.0000  78.9600
    183    2 Se   34      9.959874     15.333329      5.500000   6.0000  78.9600
    184    1 Mo   42     11.620000     14.375000      7.169029  14.0000  95.9600
    185    2 Se   34     13.279874     15.333329      8.838059   6.0000  78.9600
    186    2 Se   34     13.279874     15.333329      5.500000   6.0000  78.9600
    187    1 Mo   42     14.940000     14.375000      7.169029  14.0000  95.9600
    188    2 Se   34     16.599874     15.333329      8.838059   6.0000  78.9600
    189    2 Se   34     16.599874     15.333329      5.500000   6.0000  78.9600
    190    1 Mo   42     18.260000     14.375000      7.169029  14.0000  95.9600
    191    2 Se   34     19.919874     15.333329      8.838059   6.0000  78.9600
    192    2 Se   34     19.919874     15.333329      5.500000   6.0000  78.9600
    193    1 Mo   42     21.580000     14.375000      7.169029  14.0000  95.9600
    194    2 Se   34     23.239874     15.333329      8.838059   6.0000  78.9600
    195    2 Se   34     23.239874     15.333329      5.500000   6.0000  78.9600
    196    1 Mo   42     24.900000     14.375000      7.169029  14.0000  95.9600
    197    2 Se   34     26.559874     15.333329      8.838059   6.0000  78.9600
    198    2 Se   34     26.559874     15.333329      5.500000   6.0000  78.9600
    199    1 Mo   42     -9.960000     17.250000      7.169029  14.0000  95.9600
    200    2 Se   34     -8.300126     18.208329      8.838059   6.0000  78.9600
    201    2 Se   34     -8.300126     18.208329      5.500000   6.0000  78.9600
    202    1 Mo   42     -6.640000     17.250000      7.169029  14.0000  95.9600
    203    2 Se   34     -4.980126     18.208329      8.838059   6.0000  78.9600
    204    2 Se   34     -4.980126     18.208329      5.500000   6.0000  78.9600
    205    1 Mo   42     -3.320000     17.250000      7.169029  14.0000  95.9600
    206    2 Se   34     -1.660126     18.208329      8.838059   6.0000  78.9600
    207    2 Se   34     -1.660126     18.208329      5.500000   6.0000  78.9600
    208    1 Mo   42      0.000000     17.250000      7.169029  14.0000  95.9600
    209    2 Se   34      1.659874     18.208329      8.838059   6.0000  78.9600
    210    2 Se   34      1.659874     18.208329      5.500000   6.0000  78.9600
    211    1 Mo   42      3.320000     17.250000      7.169029  14.0000  95.9600
[...]
 matmuls total                           33305652       0.4%     99.6%      0.0%
 number of processed stacks               6702520       2.0%     98.0%      0.0%
 average stack size                                     1.0       5.0       0.0
 marketing flops                   988.707029E+09
 -------------------------------------------------------------------------------
 # multiplications                              6
 max memory usage/rank             883.363840E+06
 # max total images/rank                        5
 # max 3D layers                                1
 # MPI messages exchanged                 2013120
 MPI messages size (bytes):
  total size                       251.804205E+09
  min size                           0.000000E+00
  max size                         301.184000E+03
  average size                     125.081570E+03
 MPI breakdown and total messages size (bytes):
             size <=      128              149040                        0
       128 < size <=     8192                2990                 20206880
      8192 < size <=    32768              176709               2974517504
     32768 < size <=   131072              669109              51804638432
    131072 < size <=  4194304             1015272             197004874176
   4194304 < size <= 16777216                   0                        0
  16777216 < size                               0                        0
 -------------------------------------------------------------------------------

 *** WARNING in dbcsr_mm.F:290 :: Using a non-square number of MPI ranks   ***
 *** might lead to poor performance. Used ranks: 1440 Suggested: 1444 2916 ***

 -------------------------------------------------------------------------------
 -                                                                             -
 -                      DBCSR MESSAGE PASSING PERFORMANCE                      -
 -                                                                             -
 -------------------------------------------------------------------------------
 ROUTINE             CALLS      AVE VOLUME [Bytes]
 MP_Bcast              205                     12.
 MP_Allreduce          457                     25.
 MP_Alltoall         99103                5310169.
 MP_ISend             2860                  61585.
 MP_IRecv             2856                  61473.
 -------------------------------------------------------------------------------

 -------------------------------------------------------------------------------
 -                                                                             -
 -                                DBM STATISTICS                               -
 -                                                                             -
 -------------------------------------------------------------------------------
    M  x    N  x    K                                          COUNT     PERCENT
    ?  x  ???  x   ??                                    35418875574       3.84%
    ?  x  ???  x    ?                                    86793817034       9.40%
   ??  x  ???  x    ?                                    39487499490       4.28%
  ???  x   ??  x   ??                                   129295555836      14.00%
   ??  x >999  x   ??                                     4701784156       0.51%
   ??  x   ??  x   ??                                     7815020958       0.85%
   ??  x  ???  x   ??                                    16120830434       1.75%
    ?  x >999  x    ?                                    24693290244       2.67%
    ?  x   ??  x  ???                                    24668990219       2.67%
   ??  x    ?  x  ???                                    24542356734       2.66%
   ??  x   ??  x >999                                     2918422335       0.32%
    ?  x    ?  x >999                                    15605859190       1.69%
   ??  x >999  x    ?                                    11236154711       1.22%
   ??  x    ?  x >999                                     6751140155       0.73%
    ?  x   ??  x >999                                     6741341392       0.73%
    ?  x    ?  x  ???                                    57579816038       6.24%
    ?  x >999  x   ??                                    10333152810       1.12%
   ??  x   ??  x  ???                                   117146839145      12.69%
    ?  x    ?  x    ?                                   301425631693      32.65%
 -------------------------------------------------------------------------------

 -------------------------------------------------------------------------------
 -                                                                             -
 -                                GRID STATISTICS                              -
 -                                                                             -
 -------------------------------------------------------------------------------
 LP    KERNEL             BACKEND                              COUNT     PERCENT
 5     collocate general  REF                                1820808      20.69%
 5     integrate general  REF                                1820808      20.69%
 0     collocate general  REF                                1045440      11.88%
 6     collocate general  REF                                1030557      11.71%
 6     integrate general  REF                                1030557      11.71%
 4     collocate general  REF                                 764478       8.69%
 4     integrate general  REF                                 764478       8.69%
 0     integrate general  REF                                 522720       5.94%
 -------------------------------------------------------------------------------

 MEMORY| Estimated peak process memory [MiB]                                6154

 -------------------------------------------------------------------------------
 ----                             MULTIGRID INFO                            ----
 -------------------------------------------------------------------------------
 count for grid        1:       29356858          cutoff [a.u.]          250.00
 count for grid        2:       19346006          cutoff [a.u.]           83.33
 count for grid        3:       13387425          cutoff [a.u.]           27.78
 count for grid        4:        4090333          cutoff [a.u.]            9.26
 total gridlevel count  :       66180622

 -------------------------------------------------------------------------------
 -                                                                             -
 -                         MESSAGE PASSING PERFORMANCE                         -
 -                                                                             -
 -------------------------------------------------------------------------------

 ROUTINE             CALLS      AVE VOLUME [Bytes]
 MP_Group             6005
 MP_Bcast            16383                 490048.
 MP_Allreduce        11612                  18620.
 MP_Sync              8701
 MP_Alltoall          3919
 MP_SendRecv          8634                   8640.
 MP_ISendRecv         8634                   8640.
 MP_Wait             18370
 MP_comm_split        3489
 MP_ISend           987094                 218653.
 MP_IRecv           723250                 241199.
 -------------------------------------------------------------------------------


 -------------------------------------------------------------------------------
 -                                                                             -
 -                           R E F E R E N C E S                               -
 -                                                                             -
 -------------------------------------------------------------------------------
 
 CP2K version 2023.1 (Development Version), the CP2K developers group (2023).
 CP2K is freely available from https://www.cp2k.org/ .

 Kuehne,Thomas D.; Iannuzzi,Marcella; Del Ben,Mauro;
 Rybkin,Vladimir V.; Seewald,Patrick; Stein,Frederick; Laino,Teodoro;
 Khaliullin,Rustam Z.; Schuett,Ole; Schiffmann,Florian; Golze,Dorothea;
 Wilhelm,Jan; Chulkov,Sergey; Bani-Hashemian,Mohammad Hossein;
 Weber,Valery; Borstnik,Urban; Taillefumier,Mathieu;
 Jakobovits,Alice Shoshana; Lazzaro,Alfio; Pabst,Hans; Mueller,Tiziano;
 Schade,Robert; Guidon,Manuel; Andermatt,Samuel; Holmberg,Nico;
 Schenter,Gregory K.; Hehn,Anna; Bussy,Augustin; Belleflamme,Fabian;
 Tabacchi,Gloria; Gloess,Andreas; Lass,Michael; Bethune,Iain;
 Mundy,Christopher J.; Plessl,Christian; Watkins,Matt;
 VandeVondele,Joost; Krack,Matthias; Hutter,Juerg. 
 The Journal of Chemical Physics, 152 (19), (2020). 
 CP2K: An electronic structure and molecular dynamics software package -
 Quickstep: Efficient and accurate electronic structure calculations.
 https://doi.org/10.1063/5.0007045

 Wilhelm, J; Golze, D; Talirz, L; Hutter, J; Pignedoli, CA. 
 JOURNAL OF PHYSICAL CHEMISTRY LETTERS, 9, 306-312 (2018). 
 Toward GW calculations on thousands of atoms.
 https://doi.org/10.1021/acs.jpclett.7b02740

 Wilhelm, J; Hutter, J. PHYSICAL REVIEW B, 95, 235123 (2017). 
 Periodic GW calculations in the Gaussian and plane-waves scheme.
 https://doi.org/10.1103/PhysRevB.95.235123

 Wilhelm, J; Del Ben, M; Hutter, J. 
 JOURNAL OF CHEMICAL THEORY AND COMPUTATION, 12, 3623-3635 (2016). 
 GW in the Gaussian and plane waves scheme with application to linear acenes.
 https://doi.org/10.1021/acs.jctc.6b00380

 Wilhelm, J; Seewald, P; Del Ben, M; Hutter, J. 
 JOURNAL OF CHEMICAL THEORY AND COMPUTATION, 12, 5851-5859 (2016). 
 Large-Scale Cubic-Scaling Random Phase Approximation Correlation.
 https://doi.org/10.1021/acs.jctc.6b00840

 Schuett, Ole; Messmer, Peter; Hutter, Juerg; VandeVondele, Joost. 
 Electronic Structure Calculations on Graphics Processing Units, John
 Wiley & Sons, Ltd, 173-190 (2016). 
 GPU-Accelerated Sparse Matrix-Matrix Multiplication for
 Linear Scaling Density Functional Theory.
 https://doi.org/10.1002/9781118670712.ch8

 Heinecke, A; Henry, G; Hutchinson, M; Pabst, H. 
 Proceedings of Intl. Supercomputing Conference, 981-991 (2016). 
 LIBXSMM: Accelerating Small Matrix Multiplications
 by Runtime Code Generation.
 https://doi.org/10.1109/SC.2016.83

 Del Ben, M; Schuett, O; Wentz, T; Messmer, P; Hutter, J;
 VandeVondele, J. 
 COMPUTER PHYSICS COMMUNICATIONS, 187, 120-129 (2015). 
 Enabling simulation at the fifth rung of DFT: Large scale RPA
 calculations with excellent time to solution.
 https://doi.org/10.1016/j.cpc.2014.10.021

 Borstnik, U; VandeVondele, J; Weber, V; Hutter, J. 
 PARALLEL COMPUTING, 40 (5-6), 47-58 (2014). 
 Sparse matrix multiplication: The distributed block-compressed sparse
 row library.
 https://doi.org/10.1016/j.parco.2014.03.012

 Hutter, J; Iannuzzi, M; Schiffmann, F; VandeVondele, J. 
 WIREs Comput Mol Sci., 4 (1), 15-25 (2014). 
 CP2K: atomistic simulations of condensed matter systems.
 https://doi.org/10.1002/wcms.1159

 Marek, A; Blum, V; Johanni, R; Havu, V; Lang, B; Auckenthaler, T;
 Heinecke, A; Bungartz, H; Lederer, H. 
 Journal of Physics: Condensed Matter, 26 (21), (2014). 
 The ELPA library: scalable parallel eigenvalue solutions for
 electronic structure
 theory and computational science.
 https://doi.org/10.1088/0953-8984/26/21/213201

 Del Ben, M; Hutter, J; VandeVondele, J. 
 JOURNAL OF CHEMICAL THEORY AND COMPUTATION, 9 (6), 2654-2671 (2013). 
 Electron Correlation in the Condensed Phase from a Resolution of
 Identity Approach Based on the Gaussian and Plane Waves Scheme.
 https://doi.org/10.1021/ct4002202

 Del Ben, M; Hutter, J; VandeVondele, J. 
 JOURNAL OF CHEMICAL THEORY AND COMPUTATION, 8 (11), 4177-4188 (2012). 
 Second-Order Moller-Plesset Perturbation Theory in the Condensed Phase:
 An Efficient and Massively Parallel Gaussian and Plane Waves Approach.
 https://doi.org/10.1021/ct300531w

 VandeVondele, J; Hutter, J. 
 JOURNAL OF CHEMICAL PHYSICS, 127 (11), 114105 (2007). 
 Gaussian basis sets for accurate calculations on molecular systems in
 gas and condensed phases.
 https://doi.org/10.1063/1.2770708

 Krack, M. 
 THEORETICAL CHEMISTRY ACCOUNTS, 114 (1-3), 145-152 (2005). 
 Pseudopotentials for H to Kr optimized for gradient-corrected
 exchange-correlation functionals.
 https://doi.org/10.1007/s00214-005-0655-y

 VandeVondele, J; Krack, M; Mohamed, F; Parrinello, M; Chassaing, T;
 Hutter, J. COMPUTER PHYSICS COMMUNICATIONS, 167 (2), 103-128 (2005). 
 QUICKSTEP: Fast and accurate density functional calculations using a
 mixed Gaussian and plane waves approach.
 https://doi.org/10.1016/j.cpc.2004.12.014

 Frigo, M; Johnson, SG. 
 PROCEEDINGS OF THE IEEE, 93 (2), 216-231 (2005). 
 The design and implementation of FFTW3.
 https://doi.org/10.1109/JPROC.2004.840301

 Hartwigsen, C; Goedecker, S; Hutter, J. 
 PHYSICAL REVIEW B, 58 (7), 3641-3662 (1998). 
 Relativistic separable dual-space Gaussian pseudopotentials from H to Rn.
 https://doi.org/10.1103/PhysRevB.58.3641

 Lippert, G; Hutter, J; Parrinello, M. 
 MOLECULAR PHYSICS, 92 (3), 477-487 (1997). 
 A hybrid Gaussian and plane wave density functional scheme.
 https://doi.org/10.1080/002689797170220

 Goedecker, S; Teter, M; Hutter, J. 
 PHYSICAL REVIEW B, 54 (3), 1703-1710 (1996). 
 Separable dual-space Gaussian pseudopotentials.
 https://doi.org/10.1103/PhysRevB.54.1703


 -------------------------------------------------------------------------------
 -                                                                             -
 -                                T I M I N G                                  -
 -                                                                             -
 -------------------------------------------------------------------------------
 SUBROUTINE                       CALLS  ASD         SELF TIME        TOTAL TIME
                                MAXIMUM       AVERAGE  MAXIMUM  AVERAGE  MAXIMUM
 CP2K                                 1  1.0    0.007    0.021 8207.013 8207.050
 qs_energies                          1  2.0    0.000    0.000 8206.459 8206.497
 mp2_main                             1  3.0    0.000    0.000 8198.353 8198.391
 mp2_gpw_main                         1  4.0    0.003    0.004 8196.747 8196.785
 rpa_ri_compute_en                    1  5.0    0.000    0.000 7618.255 7618.291
 rpa_num_int                          1  6.0    0.000    0.000 7286.302 7286.337
 dbt_total                         1907  9.8    0.011    0.020 3338.700 3338.716
 rpa_num_int_RPA_matrix_operati      10  7.0    0.000    0.000 3239.011 3239.030
 invert_eps_compute_W_and_Erpa_      10  8.0    0.002    0.003 3238.984 3239.004
 dbt_contract                       765 11.0    0.046    0.058 3044.850 3046.642
 dbt_tas_total                     1206 13.4   10.884   15.699 3010.643 3010.656
 dbt_tas_multiply                  1065 12.8    0.003    0.003 3003.127 3003.144
 cp_cfm_heevd                       441 10.2 2693.517 2694.927 2693.517 2694.927
 cp_cfm_power                       312  9.7    0.269    0.283 2656.322 2656.793
 compute_QP_energies                  1  7.0    0.010    0.666 2650.445 2650.457
 compute_self_energy_cubic_gw_k       1  8.0    0.079    0.099 2649.641 2649.656
 compute_Q_kp_RPA                   260  9.0    0.089    0.105 2621.290 2621.777
 dbt_tas_dbm                       1065 14.8    0.004    0.004 2100.700 2100.711
 dbm_multiply                      1065 16.8 1599.788 1781.792 1599.788 1781.792
 parallel_gemm_cfm                 4194 10.2    0.012    0.015 1508.949 1513.044
 parallel_gemm_cfm_cosma           4194 11.2 1508.937 1513.032 1508.937 1513.032
 compute_mat_P_omega                  1  7.0    0.001    0.002 1392.936 1392.951
 compute_mat_P_omega_contract        10  8.0    2.194    2.789 1376.523 1376.529
 contract_to_self_energy            198  9.0    0.004    0.005 1170.265 1170.805
 dbt_tas_mm_2                       289 15.0    0.002    0.002 1137.412 1137.417
 mp_sync                           8701 12.6  654.243  816.081  654.243  816.081
 tensor_operation_3c_W               99  9.0    0.000    0.001  801.522  801.878
 compute_mat_P_omega_calc_P_t        90  9.0    0.000    0.000  643.814  643.818
 trafo_to_mo_and_kpoints             21  9.0    0.270    0.319  636.726  636.729
 mp2_ri_gpw_compute_in                1  5.0    0.001    0.001  578.475  578.479
 get_2c_integrals                     1  6.0    0.000    0.000  552.850  552.854
 mp_waitall_2                      5707 16.7  466.448  519.487  466.448  519.487
 compute_Wc_real_space_tau_GW       260  9.0    0.002    0.002  508.647  508.934
 inversion_of_M_and_mult_with_c       1  7.0    0.000    0.001  433.706  433.711
 dbt_tas_mm_3N                      198 16.5    0.000    0.000  344.497  432.675
 dbm_redistribute                  2394 15.8  320.744  362.715  320.744  362.715
 compute_mat_P_omega_calc_M_occ      90  9.0    2.220    2.831  356.169  356.171
 compute_Wc_real_space_tau_GW_3     260 10.0    0.001    0.002  342.467  343.839
 get_bandstruc_and_k_dependent_       1  6.0    0.001    0.001  331.952  331.955
 create_kp_and_calc_kp_orbitals       3  7.0    0.004    0.011  331.951  331.954
 dbt_tas_replicate                  934 15.0   19.581   46.385  305.693  320.111
 dbt_tas_communicate_buffer        1967 17.2    0.309    0.439  295.590  311.898
 cp_cfm_geeig                       129  8.0    0.002    0.003  311.072  311.276
 dbt_tas_replicate_communicate_     717 16.3    0.066    0.104  272.370  287.722
 convert_to_new_pgrid              3195 14.8   21.554   35.664  236.702  259.911
 mp_isend_dv                     520444 16.5   33.869  252.334   33.869  252.334
 dbt_copy                           961 10.8    0.047    0.057  237.346  249.406
 dbt_reshape                        941 11.8   23.208   26.758  236.107  248.042
 dbt_communicate_buffer             941 12.8    0.190    0.214  205.571  215.338
 dbt_tas_mm_3T                      396 16.5    0.001    0.001  170.187  205.075
 compute_mat_P_omega_calc_M_vir      90  9.0    0.000    0.000  196.376  196.378
 compute_Wc_real_space_tau_GW_2     260 10.0    0.024    0.027  157.621  158.241
 cp_cfm_cholesky_invert             260 11.0  155.315  155.676  155.315  155.676
 dbt_tas_mm_1N                      182 15.0    0.000    0.001  121.243  151.880
 compute_V_by_lattice_sum             1  7.0    0.000    0.000  114.980  114.982
 real_space_to_kpoint_transform      37  9.8    2.858    3.406  114.161  114.180
 build_2c_coulomb_matrix_kp           2  8.0    0.000    0.000   96.139  113.970
 lattice_sum                          2  9.0    2.178    2.604   96.139  113.969
 mp_alltoall_d11v                 45813 12.9   98.160  112.562   98.160  112.562
 compute_v_transl                 13312 10.0   93.489  110.819   93.905  111.344
 dbcsr_new_transposed              7452 10.9    0.447    0.523  110.675  110.927
 dbcsr_redistribute                7448 11.9    1.327    1.667  110.144  110.408
 cp_cfm_cholesky_decompose          389  9.7   85.509   85.608   85.509   85.608
 copy_dbcsr_to_fm                  3836 10.5    0.057    0.065   74.228   85.197
 -------------------------------------------------------------------------------

 The number of warnings for this run is : 2
 
 -------------------------------------------------------------------------------
  **** **** ******  **  PROGRAM ENDED AT                 2023-06-03 07:52:27.681
 ***** ** ***  *** **   PROGRAM RAN ON                                  n2cn0301
 **    ****   ******    PROGRAM RAN BY                                  eprop2d1
 ***** **    ** ** **   PROGRAM PROCESS ID                               2214572
  **** **  *******  **  PROGRAM STOPPED IN /scratch/hpc-prf-eprop2d/eprop2d1_Jan
                                           /02_MoS2_MoSe2_WS2_WSe2/2_MoSe2/11x11
                                           _PBE/04_reg_RI_1e-2_TZVP_gap_standard
                                           _RI
