 DBCSR| CPU Multiplication driver                                           XSMM (U)
 DBCSR| Multrec recursion limit                                              512 (U)
 DBCSR| Multiplication stack size                                           1000 (D)
 DBCSR| Maximum elements for images                                    UNLIMITED (U)
 DBCSR| Multiplicative factor virtual images                                   1 (U)
 DBCSR| Use multiplication densification                                       T (D)
 DBCSR| Multiplication size stacks                                             3 (U)
 DBCSR| Number of 3D layers                                               SINGLE (U)
 DBCSR| Use RMA algorithm                                                      F (U)
 DBCSR| Use Communication thread                                               T (U)
 DBCSR| Communication thread load                                             75 (D)
 DBCSR| MPI: My process id                                                     0
 DBCSR| MPI: Number of processes                                             612
 DBCSR| OMP: Current number of threads                                         4
 DBCSR| OMP: Max number of threads                                             4
 DBCSR| Split modifier for TAS multiplication algorithm                  1.0E+00 (U)


  **** **** ******  **  PROGRAM STARTED AT               2023-03-05 10:27:33.067
 ***** ** ***  *** **   PROGRAM STARTED ON                      f0601.nhr.fau.de
 **    ****   ******    PROGRAM STARTED BY                              b165da10
 ***** **    ** ** **   PROGRAM PROCESS ID                               2290379
  **** **  *******  **  PROGRAM STARTED IN /home/atuin/b165da/b165da10/17_MoS2_f
                                           ritz/10x10/1_reg_RI_1e-2

 CP2K| version string:                 CP2K version 2023.1 (Development Version)
 CP2K| source code revision number:                                  git:383ec4c
 CP2K| cp2kflags: omp libint fftw3 libxc parallel mpi_f08 scalapack cosma xsmm p
 CP2K|            lumed2 spglib mkl libvdwxc
 CP2K| is freely available from                            https://www.cp2k.org/
 CP2K| Program compiled at                           Fri Feb 3 21:19:19 CET 2023
 CP2K| Program compiled on                                     fritz3.nhr.fau.de
 CP2K| Program compiled for                                                local
 CP2K| Data directory path    /home/atuin/b165da/b165da10/01_CP2K_compilations/0
 CP2K| Input file name                                               GW_WSe2.inp
 
 GLOBAL| Force Environment number                                              1
 GLOBAL| Basis set file name                                        BASIS_MOLOPT
 GLOBAL| Potential file name                                      GTH_POTENTIALS
 GLOBAL| MM Potential file name                                     MM_POTENTIAL
 GLOBAL| Coordinate file name                                      __STD_INPUT__
 GLOBAL| Method name                                                        CP2K
 GLOBAL| Project name                                                       MoS2
 GLOBAL| Run type                                                         ENERGY
 GLOBAL| FFT library                                                       FFTW3
 GLOBAL| Diagonalization library                                       ScaLAPACK
 GLOBAL| DGEMM library                                                      BLAS
 GLOBAL| Orthonormality check for eigenvectors                          DISABLED
 GLOBAL| Matrix multiplication library                                     COSMA
 GLOBAL| All-to-all communication in single precision                          F
 GLOBAL| FFTs using library dependent lengths                                  F
 GLOBAL| Grid backend                                                       AUTO
 GLOBAL| Global print level                                               MEDIUM
 GLOBAL| MPI I/O enabled                                                       T
 GLOBAL| Total number of message passing processes                           612
 GLOBAL| Number of threads for this process                                    4
 GLOBAL| This output is from process                                           0
 GLOBAL| Stack size for threads created by OpenMP (OMP_STACKSIZE)        default
 GLOBAL| CPU model name            Intel(R) Xeon(R) Platinum 8360Y CPU @ 2.40GHz
 GLOBAL| CPUID                                                              1003

 MEMORY|                        rank 0           min           max       average
 MEMORY| MemTotal            263795724     263781464     263797864     263795192
 MEMORY| MemFree             253066056     246418648     255680756     251173910
 MEMORY| Buffers                  2548           392          2808          2044
 MEMORY| Cached                2861272       2292776       2909944       2829549
 MEMORY| Slab                  2911532        632736       8833188       4547360
 MEMORY| SReclaimable           129204         98036        146284        123336
 MEMORY| MemLikelyFree       256059080     249415380     258535944     254128841


 *** Fundamental physical constants (SI units) ***

 *** Literature: B. J. Mohr and B. N. Taylor,
 ***             CODATA recommended values of the fundamental physical
 ***             constants: 2006, Web Version 5.1
 ***             http://physics.nist.gov/constants

 Magnetic constant or permeability of vacuum [N/A**2]       1.25663706143592E-06
 Electric constant or permittivity of vacuum [F/m]          8.85418781762039E-12
 Planck constant (h-bar) [J*s]                              1.05457162825177E-34
 Electron g factor [ ]                                     -2.00231930436220E+00
 Fine-structure constant                                    7.29735253760000E-03
 Rydberg constant [1/m]                                     1.09737315685270E+07
 Bohr radius [m]                                            5.29177208590000E-11

 *** Conversion factors ***

 [u] -> [a.u.]                                              1.82288848426455E+03
 [Angstrom] -> [Bohr] = [a.u.]                              1.88972613288564E+00
 [a.u.] = [Bohr] -> [Angstrom]                              5.29177208590000E-01
 [a.u.] -> [s]                                              2.41888432650478E-17
 [a.u.] -> [fs]                                             2.41888432650478E-02
 [a.u.] -> [J]                                              4.35974393937059E-18
 [a.u.] -> [N]                                              8.23872205491840E-08
 [a.u.] -> [K]                                              3.15774647902944E+05
 [a.u.] -> [kJ/mol]                                         2.62549961709828E+03
 [a.u.] -> [kcal/mol]                                       6.27509468713739E+02
 [a.u.] -> [Pa]                                             2.94210107994716E+13
 [a.u.] -> [bar]                                            2.94210107994716E+08
 [a.u.] -> [atm]                                            2.90362800883016E+08
 [a.u.] -> [eV]                                             2.72113838565563E+01
 [a.u.] -> [Hz]                                             6.57968392072181E+15
 [a.u.] -> [1/cm] (wave numbers)                            2.19474631370540E+05
 [a.u./Bohr**2] -> [1/cm]                                   5.14048714338585E+03
 
 GENERATE|  Preliminary Number of Bonds generated:                             0
 GENERATE|  Achieved consistency in connectivity generation.

 CELL| Volume [angstrom^3]:                                         12889.705604
 CELL| Numerically orthorhombic:                                              NO
 CELL| Periodicity                                                            XY

 CELL_REF| Volume [angstrom^3]:                                     12889.705604
 CELL_REF| Numerically orthorhombic:                                          NO
 CELL_REF| Periodicity                                                        XY

 *******************************************************************************
 *******************************************************************************
 **                                                                           **
 **     #####                         ##              ##                      **
 **    ##   ##            ##          ##              ##                      **
 **   ##     ##                       ##            ######                    **
 **   ##     ##  ##   ##  ##   #####  ##  ##   ####   ##    #####    #####    **
 **   ##     ##  ##   ##  ##  ##      ## ##   ##      ##   ##   ##  ##   ##   **
 **   ##  ## ##  ##   ##  ##  ##      ####     ###    ##   ######   ######    **
 **    ##  ###   ##   ##  ##  ##      ## ##      ##   ##   ##       ##        **
 **     #######   #####   ##   #####  ##  ##  ####    ##    #####   ##        **
 **           ##                                                    ##        **
 **                                                                           **
 **                                                ... make the atoms dance   **
 **                                                                           **
 **            Copyright (C) by CP2K developers group (2000-2023)             **
 **                      J. Chem. Phys. 152, 194103 (2020)                    **
 **                                                                           **
 *******************************************************************************

 DFT| Spin restricted Kohn-Sham (RKS) calculation                            RKS
 DFT| Multiplicity                                                             1
 DFT| Number of spin states                                                    1
 DFT| Charge                                                                   0
 DFT| Self-interaction correction (SIC)                                       NO
 DFT| XC density smoothing                                                  NONE
 DFT| XC derivatives                                                          PW

 FUNCTIONAL| PADE:
 FUNCTIONAL| S. Goedecker, M. Teter and J. Hutter, Phys. Rev. B 54, 1703 (1996) 


 QS| Method:                                                                 GPW
 QS| Density plane wave grid type                        NON-SPHERICAL FULLSPACE
 QS| Number of grid levels:                                                    4
 QS| Density cutoff [a.u.]:                                                250.0
 QS| Multi grid cutoff [a.u.]: 1) grid level                               250.0
 QS|                           2) grid level                                83.3
 QS|                           3) grid level                                27.8
 QS|                           4) grid level                                 9.3
 QS| Grid level progression factor:                                          3.0
 QS| Relative density cutoff [a.u.]:                                        50.0
 QS| Interaction thresholds: eps_pgf_orb:                                1.0E-40
 QS|                         eps_filter_matrix:                          0.0E+00
 QS|                         eps_core_charge:                            1.0E-42
 QS|                         eps_rho_gspace:                             1.0E-40
 QS|                         eps_rho_rspace:                             1.0E-40
 QS|                         eps_gvg_rspace:                             1.0E-20
 QS|                         eps_ppl:                                    1.0E-02
 QS|                         eps_ppnl:                                   1.0E-22


 ATOMIC KIND INFORMATION

  1. Atomic kind: Mo                                    Number of atoms:     100

     Orbital Basis Set                              TZVP-MOLOPT-SR-GTH_robust_12

       Number of orbital shell sets:                                           1
       Number of orbital shells:                                              11
       Number of primitive Cartesian functions:                                7
       Number of Cartesian basis functions:                                   41
       Number of spherical basis functions:                                   35
       Norm type:                                                              2

       Normalised Cartesian orbitals:

                        Set   Shell   Orbital            Exponent    Coefficient

                          1       1    2s                2.540273      -1.345673
                                                         1.999996       0.727257
                                                         0.894040       0.537681
                                                         0.439257       0.138693
                                                         0.189498       0.017367
                                                         0.110000       0.032945

                          1       2    3s                2.540273       0.114163
                                                         1.999996      -0.250260
                                                         0.894040       0.156531
                                                         0.439257       0.021259
                                                         0.189498      -0.094450
                                                         0.110000       0.527481

                          1       3    4s                2.540273       0.776470
                                                         1.999996      -2.724036
                                                         0.894040       1.964078
                                                         0.439257      -0.908890
                                                         0.189498       0.239910
                                                         0.110000      -1.638373

                          1       4    5s                2.540273       0.193805
                                                         1.999996       0.674775
                                                         0.894040      -0.282582
                                                         0.439257       0.089402
                                                         0.189498      -0.137139
                                                         0.110000      -0.488537

                          1       5    3px               2.540273       3.691791
                                                         1.999996      -3.563133
                                                         0.894040      -0.805476
                                                         0.439257      -0.103576
                                                         0.189498       0.030607
                                                         0.110000       0.070996
                          1       5    3py               2.540273       3.691791
                                                         1.999996      -3.563133
                                                         0.894040      -0.805476
                                                         0.439257      -0.103576
                                                         0.189498       0.030607
                                                         0.110000       0.070996
                          1       5    3pz               2.540273       3.691791
                                                         1.999996      -3.563133
                                                         0.894040      -0.805476
                                                         0.439257      -0.103576
                                                         0.189498       0.030607
                                                         0.110000       0.070996

                          1       6    4px               2.540273       0.129010
                                                         1.999996       0.099026
                                                         0.894040      -0.136173
                                                         0.439257      -0.038137
                                                         0.189498      -0.099149
                                                         0.110000       0.214113
                          1       6    4py               2.540273       0.129010
                                                         1.999996       0.099026
                                                         0.894040      -0.136173
                                                         0.439257      -0.038137
                                                         0.189498      -0.099149
                                                         0.110000       0.214113
                          1       6    4pz               2.540273       0.129010
                                                         1.999996       0.099026
                                                         0.894040      -0.136173
                                                         0.439257      -0.038137
                                                         0.189498      -0.099149
                                                         0.110000       0.214113

                          1       7    5px               2.540273       0.471976
                                                         1.999996       0.044875
                                                         0.894040      -0.003198
                                                         0.439257      -0.397109
                                                         0.189498      -0.027230
                                                         0.110000      -0.427107
                          1       7    5py               2.540273       0.471976
                                                         1.999996       0.044875
                                                         0.894040      -0.003198
                                                         0.439257      -0.397109
                                                         0.189498      -0.027230
                                                         0.110000      -0.427107
                          1       7    5pz               2.540273       0.471976
                                                         1.999996       0.044875
                                                         0.894040      -0.003198
                                                         0.439257      -0.397109
                                                         0.189498      -0.027230
                                                         0.110000      -0.427107

                          1       8    4dx2              2.540273      -1.452114
                                                         1.999996       1.851969
                                                         0.894040       0.336748
                                                         0.439257       0.134418
                                                         0.189498       0.030638
                                                         0.110000      -0.028347
                          1       8    4dxy              2.540273      -2.515135
                                                         1.999996       3.207704
                                                         0.894040       0.583264
                                                         0.439257       0.232819
                                                         0.189498       0.053066
                                                         0.110000      -0.049099
                          1       8    4dxz              2.540273      -2.515135
                                                         1.999996       3.207704
                                                         0.894040       0.583264
                                                         0.439257       0.232819
                                                         0.189498       0.053066
                                                         0.110000      -0.049099
                          1       8    4dy2              2.540273      -1.452114
                                                         1.999996       1.851969
                                                         0.894040       0.336748
                                                         0.439257       0.134418
                                                         0.189498       0.030638
                                                         0.110000      -0.028347
                          1       8    4dyz              2.540273      -2.515135
                                                         1.999996       3.207704
                                                         0.894040       0.583264
                                                         0.439257       0.232819
                                                         0.189498       0.053066
                                                         0.110000      -0.049099
                          1       8    4dz2              2.540273      -1.452114
                                                         1.999996       1.851969
                                                         0.894040       0.336748
                                                         0.439257       0.134418
                                                         0.189498       0.030638
                                                         0.110000      -0.028347

                          1       9    5dx2              2.540273       1.091564
                                                         1.999996      -1.380594
                                                         0.894040      -0.266409
                                                         0.439257      -0.106871
                                                         0.189498       0.052951
                                                         0.110000      -0.123814
                          1       9    5dxy              2.540273       1.890645
                                                         1.999996      -2.391258
                                                         0.894040      -0.461434
                                                         0.439257      -0.185105
                                                         0.189498       0.091714
                                                         0.110000      -0.214453
                          1       9    5dxz              2.540273       1.890645
                                                         1.999996      -2.391258
                                                         0.894040      -0.461434
                                                         0.439257      -0.185105
                                                         0.189498       0.091714
                                                         0.110000      -0.214453
                          1       9    5dy2              2.540273       1.091564
                                                         1.999996      -1.380594
                                                         0.894040      -0.266409
                                                         0.439257      -0.106871
                                                         0.189498       0.052951
                                                         0.110000      -0.123814
                          1       9    5dyz              2.540273       1.890645
                                                         1.999996      -2.391258
                                                         0.894040      -0.461434
                                                         0.439257      -0.185105
                                                         0.189498       0.091714
                                                         0.110000      -0.214453
                          1       9    5dz2              2.540273       1.091564
                                                         1.999996      -1.380594
                                                         0.894040      -0.266409
                                                         0.439257      -0.106871
                                                         0.189498       0.052951
                                                         0.110000      -0.123814

                          1      10    6dx2              2.540273       0.186639
                                                         1.999996       0.227829
                                                         0.894040       1.446911
                                                         0.439257      -0.212124
                                                         0.189498      -0.009110
                                                         0.110000      -0.056981
                          1      10    6dxy              2.540273       0.323269
                                                         1.999996       0.394612
                                                         0.894040       2.506124
                                                         0.439257      -0.367409
                                                         0.189498      -0.015779
                                                         0.110000      -0.098694
                          1      10    6dxz              2.540273       0.323269
                                                         1.999996       0.394612
                                                         0.894040       2.506124
                                                         0.439257      -0.367409
                                                         0.189498      -0.015779
                                                         0.110000      -0.098694
                          1      10    6dy2              2.540273       0.186639
                                                         1.999996       0.227829
                                                         0.894040       1.446911
                                                         0.439257      -0.212124
                                                         0.189498      -0.009110
                                                         0.110000      -0.056981
                          1      10    6dyz              2.540273       0.323269
                                                         1.999996       0.394612
                                                         0.894040       2.506124
                                                         0.439257      -0.367409
                                                         0.189498      -0.015779
                                                         0.110000      -0.098694
                          1      10    6dz2              2.540273       0.186639
                                                         1.999996       0.227829
                                                         0.894040       1.446911
                                                         0.439257      -0.212124
                                                         0.189498      -0.009110
                                                         0.110000      -0.056981

                          1      11    5fx3              2.540273       0.802599
                                                         1.999996      -0.728191
                                                         0.894040      -0.320471
                                                         0.439257      -0.113251
                                                         0.189498      -0.010396
                                                         0.110000       0.004443
                          1      11    5fx2y             2.540273       1.794666
                                                         1.999996      -1.628284
                                                         0.894040      -0.716595
                                                         0.439257      -0.253237
                                                         0.189498      -0.023245
                                                         0.110000       0.009935
                          1      11    5fx2z             2.540273       1.794666
                                                         1.999996      -1.628284
                                                         0.894040      -0.716595
                                                         0.439257      -0.253237
                                                         0.189498      -0.023245
                                                         0.110000       0.009935
                          1      11    5fxy2             2.540273       1.794666
                                                         1.999996      -1.628284
                                                         0.894040      -0.716595
                                                         0.439257      -0.253237
                                                         0.189498      -0.023245
                                                         0.110000       0.009935
                          1      11    5fxyz             2.540273       3.108453
                                                         1.999996      -2.820270
                                                         0.894040      -1.241179
                                                         0.439257      -0.438619
                                                         0.189498      -0.040262
                                                         0.110000       0.017207
                          1      11    5fxz2             2.540273       1.794666
                                                         1.999996      -1.628284
                                                         0.894040      -0.716595
                                                         0.439257      -0.253237
                                                         0.189498      -0.023245
                                                         0.110000       0.009935
                          1      11    5fy3              2.540273       0.802599
                                                         1.999996      -0.728191
                                                         0.894040      -0.320471
                                                         0.439257      -0.113251
                                                         0.189498      -0.010396
                                                         0.110000       0.004443
                          1      11    5fy2z             2.540273       1.794666
                                                         1.999996      -1.628284
                                                         0.894040      -0.716595
                                                         0.439257      -0.253237
                                                         0.189498      -0.023245
                                                         0.110000       0.009935
                          1      11    5fyz2             2.540273       1.794666
                                                         1.999996      -1.628284
                                                         0.894040      -0.716595
                                                         0.439257      -0.253237
                                                         0.189498      -0.023245
                                                         0.110000       0.009935
                          1      11    5fz3              2.540273       0.802599
                                                         1.999996      -0.728191
                                                         0.894040      -0.320471
                                                         0.439257      -0.113251
                                                         0.189498      -0.010396
                                                         0.110000       0.004443

     RI Auxiliary Basis Set                                 def2-SVP-RIFIT-mod-2

       Number of orbital shell sets:                                          17
       Number of orbital shells:                                              17
       Number of primitive Cartesian functions:                               17
       Number of Cartesian basis functions:                                   91
       Number of spherical basis functions:                                   69
       Norm type:                                                              2

       Normalised Cartesian orbitals:

                        Set   Shell   Orbital            Exponent    Coefficient

                          1       1    1s                0.185545       0.201487

                          2       1    1px               0.223731       0.219330
                          2       1    1py               0.223731       0.219330
                          2       1    1pz               0.223731       0.219330

                          3       1    1dx2              0.346956       0.258160
                          3       1    1dxy              0.346956       0.447147
                          3       1    1dxz              0.346956       0.447147
                          3       1    1dy2              0.346956       0.258160
                          3       1    1dyz              0.346956       0.447147
                          3       1    1dz2              0.346956       0.258160

                          4       1    1s                0.360392       0.331506

                          5       1    1fx3              0.410523       0.198593
                          5       1    1fx2y             0.410523       0.444066
                          5       1    1fx2z             0.410523       0.444066
                          5       1    1fxy2             0.410523       0.444066
                          5       1    1fxyz             0.410523       0.769146
                          5       1    1fxz2             0.410523       0.444066
                          5       1    1fy3              0.410523       0.198593
                          5       1    1fy2z             0.410523       0.444066
                          5       1    1fyz2             0.410523       0.444066
                          5       1    1fz3              0.410523       0.198593

                          6       1    1px               0.498778       0.597481
                          6       1    1py               0.498778       0.597481
                          6       1    1pz               0.498778       0.597481

                          7       1    1gx4              0.570000       0.237187
                          7       1    1gx3y             0.570000       0.627538
                          7       1    1gx3z             0.570000       0.627538
                          7       1    1gx2y2            0.570000       0.810149
                          7       1    1gx2yz            0.570000       1.403218
                          7       1    1gx2z2            0.570000       0.810149
                          7       1    1gxy3             0.570000       0.627538
                          7       1    1gxy2z            0.570000       1.403218
                          7       1    1gxyz2            0.570000       1.403218
                          7       1    1gxz3             0.570000       0.627538
                          7       1    1gy4              0.570000       0.237187
                          7       1    1gy3z             0.570000       0.627538
                          7       1    1gy2z2            0.570000       0.810149
                          7       1    1gyz3             0.570000       0.627538
                          7       1    1gz4              0.570000       0.237187

                          8       1    1dx2              0.576698       0.628158
                          8       1    1dxy              0.576698       1.088002
                          8       1    1dxz              0.576698       1.088002
                          8       1    1dy2              0.576698       0.628158
                          8       1    1dyz              0.576698       1.088002
                          8       1    1dz2              0.576698       0.628158

                          9       1    1s                0.619083       0.497418

                         10       1    1s                1.092167       0.761424

                         11       1    1fx3              1.103628       1.837832
                         11       1    1fx2y             1.103628       4.109516
                         11       1    1fx2z             1.103628       4.109516
                         11       1    1fxy2             1.103628       4.109516
                         11       1    1fxyz             1.103628       7.117891
                         11       1    1fxz2             1.103628       4.109516
                         11       1    1fy3              1.103628       1.837832
                         11       1    1fy2z             1.103628       4.109516
                         11       1    1fyz2             1.103628       4.109516
                         11       1    1fz3              1.103628       1.837832

                         12       1    1px               1.390701       2.152694
                         12       1    1py               1.390701       2.152694
                         12       1    1pz               1.390701       2.152694

                         13       1    1dx2              1.439171       3.112475
                         13       1    1dxy              1.439171       5.390965
                         13       1    1dxz              1.439171       5.390965
                         13       1    1dy2              1.439171       3.112475
                         13       1    1dyz              1.439171       5.390965
                         13       1    1dz2              1.439171       3.112475

                         14       1    1gx4              1.615953       4.164995
                         14       1    1gx3y             1.615953      11.019542
                         14       1    1gx3z             1.615953      11.019542
                         14       1    1gx2y2            1.615953      14.226167
                         14       1    1gx2yz            1.615953      24.640444
                         14       1    1gx2z2            1.615953      14.226167
                         14       1    1gxy3             1.615953      11.019542
                         14       1    1gxy2z            1.615953      24.640444
                         14       1    1gxyz2            1.615953      24.640444
                         14       1    1gxz3             1.615953      11.019542
                         14       1    1gy4              1.615953       4.164995
                         14       1    1gy3z             1.615953      11.019542
                         14       1    1gy2z2            1.615953      14.226167
                         14       1    1gyz3             1.615953      11.019542
                         14       1    1gz4              1.615953       4.164995

                         15       1    1px               2.100661       3.604831
                         15       1    1py               2.100661       3.604831
                         15       1    1pz               2.100661       3.604831

                         16       1    1s                2.197983       1.286555

                         17       1    1dx2              2.302596       7.084198
                         17       1    1dxy              2.302596      12.270190
                         17       1    1dxz              2.302596      12.270190
                         17       1    1dy2              2.302596       7.084198
                         17       1    1dyz              2.302596      12.270190
                         17       1    1dz2              2.302596       7.084198

       Atomic covalent radius [Angstrom]:                                  1.300

       Atomic van der Waals radius [Angstrom]:                             1.670

     GTH Potential information for                                  GTH-PADE-q14

       Description:                       Goedecker-Teter-Hutter pseudopotential
                                           Goedecker et al., PRB 54, 1703 (1996)
                                          Hartwigsen et al., PRB 58, 3641 (1998)
                                                      Krack, TCA 114, 145 (2005)

       Gaussian exponent of the core charge distribution:               2.704164
       Electronic configuration (s p d ...):                           3   6   5

       Parameters of the local part of the GTH pseudopotential:

                          rloc        C1          C2          C3          C4
                        0.430000   16.237452    1.496536

       Parameters of the non-local part of the GTH pseudopotential:

                   l      r(l)      h(i,j,l)

                   0    0.376255    3.362426    2.048528
                                    2.048528   -5.289276
                   1    0.361734   -0.379571    1.718923
                                    1.718923   -4.067713
                   2    0.525828   -1.543211   -0.473760
                                   -0.473760    1.074388

  2. Atomic kind: S                                     Number of atoms:     200

     Orbital Basis Set                                  TZVP-MOLOPT-GTH_robust_9

       Number of orbital shell sets:                                           1
       Number of orbital shells:                                               7
       Number of primitive Cartesian functions:                                7
       Number of Cartesian basis functions:                                   18
       Number of spherical basis functions:                                   17
       Norm type:                                                              2

       Normalised Cartesian orbitals:

                        Set   Shell   Orbital            Exponent    Coefficient

                          1       1    2s                3.817591       0.157267
                                                         2.362752      -0.510091
                                                         0.861004      -0.067546
                                                         0.417525       0.341513
                                                         0.181514       0.065074
                                                         0.120000       0.001196
                                                         0.140000      -0.001073

                          1       2    3s                3.817591      -0.191568
                                                         2.362752       0.523701
                                                         0.861004       0.282710
                                                         0.417525      -0.587888
                                                         0.181514       0.178884
                                                         0.120000       0.543819
                                                         0.140000      -0.487887

                          1       3    4s                3.817591      -0.991151
                                                         2.362752       1.865280
                                                         0.861004       0.135387
                                                         0.417525      -0.133451
                                                         0.181514       0.078400
                                                         0.120000      -0.405526
                                                         0.140000       0.363817

                          1       4    3px               3.817591      -0.172566
                                                         2.362752      -0.175790
                                                         0.861004       0.224449
                                                         0.417525       0.286658
                                                         0.181514       0.049751
                                                         0.120000       0.014921
                                                         0.140000      -0.014459
                          1       4    3py               3.817591      -0.172566
                                                         2.362752      -0.175790
                                                         0.861004       0.224449
                                                         0.417525       0.286658
                                                         0.181514       0.049751
                                                         0.120000       0.014921
                                                         0.140000      -0.014459
                          1       4    3pz               3.817591      -0.172566
                                                         2.362752      -0.175790
                                                         0.861004       0.224449
                                                         0.417525       0.286658
                                                         0.181514       0.049751
                                                         0.120000       0.014921
                                                         0.140000      -0.014459

                          1       5    4px               3.817591       0.010507
                                                         2.362752       0.217406
                                                         0.861004      -0.162395
                                                         0.417525      -0.206857
                                                         0.181514       0.107046
                                                         0.120000       0.290385
                                                         0.140000      -0.281393
                          1       5    4py               3.817591       0.010507
                                                         2.362752       0.217406
                                                         0.861004      -0.162395
                                                         0.417525      -0.206857
                                                         0.181514       0.107046
                                                         0.120000       0.290385
                                                         0.140000      -0.281393
                          1       5    4pz               3.817591       0.010507
                                                         2.362752       0.217406
                                                         0.861004      -0.162395
                                                         0.417525      -0.206857
                                                         0.181514       0.107046
                                                         0.120000       0.290385
                                                         0.140000      -0.281393

                          1       6    5px               3.817591      -0.947232
                                                         2.362752       1.731661
                                                         0.861004      -1.484366
                                                         0.417525       0.775915
                                                         0.181514       0.065997
                                                         0.120000      -0.317574
                                                         0.140000       0.307740
                          1       6    5py               3.817591      -0.947232
                                                         2.362752       1.731661
                                                         0.861004      -1.484366
                                                         0.417525       0.775915
                                                         0.181514       0.065997
                                                         0.120000      -0.317574
                                                         0.140000       0.307740
                          1       6    5pz               3.817591      -0.947232
                                                         2.362752       1.731661
                                                         0.861004      -1.484366
                                                         0.417525       0.775915
                                                         0.181514       0.065997
                                                         0.120000      -0.317574
                                                         0.140000       0.307740

                          1       7    4dx2              3.817591       0.133441
                                                         2.362752       0.805146
                                                         0.861004       0.452959
                                                         0.417525       0.174839
                                                         0.181514       0.017641
                                                         0.120000      -0.004028
                                                         0.140000       0.004216
                          1       7    4dxy              3.817591       0.231126
                                                         2.362752       1.394554
                                                         0.861004       0.784547
                                                         0.417525       0.302830
                                                         0.181514       0.030555
                                                         0.120000      -0.006976
                                                         0.140000       0.007302
                          1       7    4dxz              3.817591       0.231126
                                                         2.362752       1.394554
                                                         0.861004       0.784547
                                                         0.417525       0.302830
                                                         0.181514       0.030555
                                                         0.120000      -0.006976
                                                         0.140000       0.007302
                          1       7    4dy2              3.817591       0.133441
                                                         2.362752       0.805146
                                                         0.861004       0.452959
                                                         0.417525       0.174839
                                                         0.181514       0.017641
                                                         0.120000      -0.004028
                                                         0.140000       0.004216
                          1       7    4dyz              3.817591       0.231126
                                                         2.362752       1.394554
                                                         0.861004       0.784547
                                                         0.417525       0.302830
                                                         0.181514       0.030555
                                                         0.120000      -0.006976
                                                         0.140000       0.007302
                          1       7    4dz2              3.817591       0.133441
                                                         2.362752       0.805146
                                                         0.861004       0.452959
                                                         0.417525       0.174839
                                                         0.181514       0.017641
                                                         0.120000      -0.004028
                                                         0.140000       0.004216

     RI Auxiliary Basis Set                                 def2-SVP-RIFIT-mod-1

       Number of orbital shell sets:                                          13
       Number of orbital shells:                                              13
       Number of primitive Cartesian functions:                               13
       Number of Cartesian basis functions:                                   54
       Number of spherical basis functions:                                   45
       Norm type:                                                              2

       Normalised Cartesian orbitals:

                        Set   Shell   Orbital            Exponent    Coefficient

                          1       1    1s                0.197811       0.211396

                          2       1    1dx2              0.242242       0.137672
                          2       1    1dxy              0.242242       0.238455
                          2       1    1dxz              0.242242       0.238455
                          2       1    1dy2              0.242242       0.137672
                          2       1    1dyz              0.242242       0.238455
                          2       1    1dz2              0.242242       0.137672

                          3       1    1px               0.324549       0.349172
                          3       1    1py               0.324549       0.349172
                          3       1    1pz               0.324549       0.349172

                          4       1    1s                0.389135       0.351144

                          5       1    1fx3              0.529340       0.351850
                          5       1    1fx2y             0.529340       0.786760
                          5       1    1fx2z             0.529340       0.786760
                          5       1    1fxy2             0.529340       0.786760
                          5       1    1fxyz             0.529340       1.362708
                          5       1    1fxz2             0.529340       0.786760
                          5       1    1fy3              0.529340       0.351850
                          5       1    1fy2z             0.529340       0.786760
                          5       1    1fyz2             0.529340       0.786760
                          5       1    1fz3              0.529340       0.351850

                          6       1    1dx2              0.603367       0.679871
                          6       1    1dxy              0.603367       1.177572
                          6       1    1dxz              0.603367       1.177572
                          6       1    1dy2              0.603367       0.679871
                          6       1    1dyz              0.603367       1.177572
                          6       1    1dz2              0.603367       0.679871

                          7       1    1px               0.631252       0.802035
                          7       1    1py               0.631252       0.802035
                          7       1    1pz               0.631252       0.802035

                          8       1    1s                0.936032       0.678232

                          9       1    1dx2              1.115385       1.992520
                          9       1    1dxy              1.115385       3.451146
                          9       1    1dxz              1.115385       3.451146
                          9       1    1dy2              1.115385       1.992520
                          9       1    1dyz              1.115385       3.451146
                          9       1    1dz2              1.115385       1.992520

                         10       1    1fx3              1.132321       1.947088
                         10       1    1fx2y             1.132321       4.353822
                         10       1    1fx2z             1.132321       4.353822
                         10       1    1fxy2             1.132321       4.353822
                         10       1    1fxyz             1.132321       7.541040
                         10       1    1fxz2             1.132321       4.353822
                         10       1    1fy3              1.132321       1.947088
                         10       1    1fy2z             1.132321       4.353822
                         10       1    1fyz2             1.132321       4.353822
                         10       1    1fz3              1.132321       1.947088

                         11       1    1px               1.173306       1.740620
                         11       1    1py               1.173306       1.740620
                         11       1    1pz               1.173306       1.740620

                         12       1    1s                2.064006       1.227279

                         13       1    1px               2.625789       4.764474
                         13       1    1py               2.625789       4.764474
                         13       1    1pz               2.625789       4.764474

       Atomic covalent radius [Angstrom]:                                  1.020

       Atomic van der Waals radius [Angstrom]:                             1.800

     GTH Potential information for                                   GTH-PADE-q6

       Description:                       Goedecker-Teter-Hutter pseudopotential
                                           Goedecker et al., PRB 54, 1703 (1996)
                                          Hartwigsen et al., PRB 58, 3641 (1998)
                                                      Krack, TCA 114, 145 (2005)

       Gaussian exponent of the core charge distribution:               2.834467
       Electronic configuration (s p d ...):                               2   4

       Parameters of the local part of the GTH pseudopotential:

                          rloc        C1          C2          C3          C4
                        0.420000   -6.554492

       Parameters of the non-local part of the GTH pseudopotential:

                   l      r(l)      h(i,j,l)

                   0    0.361757    7.905303   -1.731881
                                   -1.731881    4.471698
                   1    0.405285    3.866579


 MOLECULE KIND INFORMATION


 All atoms are their own molecule, skipping detailed information


 TOTAL NUMBERS AND MAXIMUM NUMBERS

  Total number of            - Atomic kinds:                                   2
                             - Atoms:                                        300
                             - Shell sets:                                   300
                             - Shells:                                      2500
                             - Primitive Cartesian functions:               2100
                             - Cartesian basis functions:                   7700
                             - Spherical basis functions:                   6900

  Maximum angular momentum of- Orbital basis functions:                        3
                             - Local part of the GTH pseudopotential:          2
                             - Non-local part of the GTH pseudopotential:      4


 MODULE QUICKSTEP: ATOMIC COORDINATES IN ANGSTROM

   Atom Kind Element         X             Y             Z       Z(eff)     Mass
      4    1 Mo   42      3.150000      1.818650      3.075000  14.0000  95.9600
      5    2 S    16      3.150000      3.637310      1.488300   6.0000  32.0650
      6    2 S    16      3.150000      3.637310      4.661700   6.0000  32.0650
     10    1 Mo   42      9.450000      1.818650      3.075000  14.0000  95.9600
     11    2 S    16      9.450000      3.637310      1.488300   6.0000  32.0650
     12    2 S    16      9.450000      3.637310      4.661700   6.0000  32.0650
     16    1 Mo   42     15.750000      1.818650      3.075000  14.0000  95.9600
     17    2 S    16     15.750000      3.637310      1.488300   6.0000  32.0650
     18    2 S    16     15.750000      3.637310      4.661700   6.0000  32.0650
     22    1 Mo   42     22.050000      1.818650      3.075000  14.0000  95.9600
     23    2 S    16     22.050000      3.637310      1.488300   6.0000  32.0650
     24    2 S    16     22.050000      3.637310      4.661700   6.0000  32.0650
     28    1 Mo   42     28.350000      1.818650      3.075000  14.0000  95.9600
     29    2 S    16     28.350000      3.637310      1.488300   6.0000  32.0650
     30    2 S    16     28.350000      3.637310      4.661700   6.0000  32.0650
     31    1 Mo   42     -1.575000      4.546630      3.075000  14.0000  95.9600
     32    2 S    16     -1.575000      6.365290      1.488300   6.0000  32.0650
     33    2 S    16     -1.575000      6.365290      4.661700   6.0000  32.0650
     34    1 Mo   42      1.575000      4.546630      3.075000  14.0000  95.9600
     35    2 S    16      1.575000      6.365290      1.488300   6.0000  32.0650
     36    2 S    16      1.575000      6.365290      4.661700   6.0000  32.0650
     37    1 Mo   42      4.725000      4.546630      3.075000  14.0000  95.9600
     38    2 S    16      4.725000      6.365290      1.488300   6.0000  32.0650
     39    2 S    16      4.725000      6.365290      4.661700   6.0000  32.0650
     40    1 Mo   42      7.875000      4.546630      3.075000  14.0000  95.9600
     41    2 S    16      7.875000      6.365290      1.488300   6.0000  32.0650
     42    2 S    16      7.875000      6.365290      4.661700   6.0000  32.0650
     43    1 Mo   42     11.025000      4.546630      3.075000  14.0000  95.9600
     44    2 S    16     11.025000      6.365290      1.488300   6.0000  32.0650
     45    2 S    16     11.025000      6.365290      4.661700   6.0000  32.0650
     46    1 Mo   42     14.175000      4.546630      3.075000  14.0000  95.9600
     47    2 S    16     14.175000      6.365290      1.488300   6.0000  32.0650
     48    2 S    16     14.175000      6.365290      4.661700   6.0000  32.0650
     49    1 Mo   42     17.325000      4.546630      3.075000  14.0000  95.9600
     50    2 S    16     17.325000      6.365290      1.488300   6.0000  32.0650
     51    2 S    16     17.325000      6.365290      4.661700   6.0000  32.0650
     52    1 Mo   42     20.475000      4.546630      3.075000  14.0000  95.9600
     53    2 S    16     20.475000      6.365290      1.488300   6.0000  32.0650
     54    2 S    16     20.475000      6.365290      4.661700   6.0000  32.0650
     55    1 Mo   42     23.625000      4.546630      3.075000  14.0000  95.9600
     56    2 S    16     23.625000      6.365290      1.488300   6.0000  32.0650
     57    2 S    16     23.625000      6.365290      4.661700   6.0000  32.0650
     58    1 Mo   42     26.775000      4.546630      3.075000  14.0000  95.9600
     59    2 S    16     26.775000      6.365290      1.488300   6.0000  32.0650
     60    2 S    16     26.775000      6.365290      4.661700   6.0000  32.0650
     61    1 Mo   42     -3.150000      7.274610      3.075000  14.0000  95.9600
     62    2 S    16     -3.150000      9.093270      1.488300   6.0000  32.0650
     63    2 S    16     -3.150000      9.093270      4.661700   6.0000  32.0650
     67    1 Mo   42      3.150000      7.274610      3.075000  14.0000  95.9600
     68    2 S    16      3.150000      9.093270      1.488300   6.0000  32.0650
     69    2 S    16      3.150000      9.093270      4.661700   6.0000  32.0650
     73    1 Mo   42      9.450000      7.274610      3.075000  14.0000  95.9600
     74    2 S    16      9.450000      9.093270      1.488300   6.0000  32.0650
     75    2 S    16      9.450000      9.093270      4.661700   6.0000  32.0650
     79    1 Mo   42     15.750000      7.274610      3.075000  14.0000  95.9600
     80    2 S    16     15.750000      9.093270      1.488300   6.0000  32.0650
     81    2 S    16     15.750000      9.093270      4.661700   6.0000  32.0650
     85    1 Mo   42     22.050000      7.274610      3.075000  14.0000  95.9600
     86    2 S    16     22.050000      9.093270      1.488300   6.0000  32.0650
     87    2 S    16     22.050000      9.093270      4.661700   6.0000  32.0650
     91    1 Mo   42     -4.725000     10.002590      3.075000  14.0000  95.9600
     92    2 S    16     -4.725000     11.821250      1.488300   6.0000  32.0650
     93    2 S    16     -4.725000     11.821250      4.661700   6.0000  32.0650
     94    1 Mo   42     -1.575000     10.002590      3.075000  14.0000  95.9600
     95    2 S    16     -1.575000     11.821250      1.488300   6.0000  32.0650
     96    2 S    16     -1.575000     11.821250      4.661700   6.0000  32.0650
     97    1 Mo   42      1.575000     10.002590      3.075000  14.0000  95.9600
     98    2 S    16      1.575000     11.821250      1.488300   6.0000  32.0650
     99    2 S    16      1.575000     11.821250      4.661700   6.0000  32.0650
    100    1 Mo   42      4.725000     10.002590      3.075000  14.0000  95.9600
    101    2 S    16      4.725000     11.821250      1.488300   6.0000  32.0650
    102    2 S    16      4.725000     11.821250      4.661700   6.0000  32.0650
    103    1 Mo   42      7.875000     10.002590      3.075000  14.0000  95.9600
    104    2 S    16      7.875000     11.821250      1.488300   6.0000  32.0650
    105    2 S    16      7.875000     11.821250      4.661700   6.0000  32.0650
    106    1 Mo   42     11.025000     10.002590      3.075000  14.0000  95.9600
    107    2 S    16     11.025000     11.821250      1.488300   6.0000  32.0650
    108    2 S    16     11.025000     11.821250      4.661700   6.0000  32.0650
    109    1 Mo   42     14.175000     10.002590      3.075000  14.0000  95.9600
    110    2 S    16     14.175000     11.821250      1.488300   6.0000  32.0650
    111    2 S    16     14.175000     11.821250      4.661700   6.0000  32.0650
    112    1 Mo   42     17.325000     10.002590      3.075000  14.0000  95.9600
    113    2 S    16     17.325000     11.821250      1.488300   6.0000  32.0650
    114    2 S    16     17.325000     11.821250      4.661700   6.0000  32.0650
    115    1 Mo   42     20.475000     10.002590      3.075000  14.0000  95.9600
    116    2 S    16     20.475000     11.821250      1.488300   6.0000  32.0650
    117    2 S    16     20.475000     11.821250      4.661700   6.0000  32.0650
    118    1 Mo   42     23.625000     10.002590      3.075000  14.0000  95.9600
    119    2 S    16     23.625000     11.821250      1.488300   6.0000  32.0650
    120    2 S    16     23.625000     11.821250      4.661700   6.0000  32.0650
    124    1 Mo   42     -3.150000     12.730570      3.075000  14.0000  95.9600
    125    2 S    16     -3.150000     14.549230      1.488300   6.0000  32.0650
    126    2 S    16     -3.150000     14.549230      4.661700   6.0000  32.0650
    130    1 Mo   42      3.150000     12.730570      3.075000  14.0000  95.9600
    131    2 S    16      3.150000     14.549230      1.488300   6.0000  32.0650
    132    2 S    16      3.150000     14.549230      4.661700   6.0000  32.0650
    136    1 Mo   42      9.450000     12.730570      3.075000  14.0000  95.9600
    137    2 S    16      9.450000     14.549230      1.488300   6.0000  32.0650
    138    2 S    16      9.450000     14.549230      4.661700   6.0000  32.0650
    142    1 Mo   42     15.750000     12.730570      3.075000  14.0000  95.9600
    143    2 S    16     15.750000     14.549230      1.488300   6.0000  32.0650
    144    2 S    16     15.750000     14.549230      4.661700   6.0000  32.0650
    148    1 Mo   42     22.050000     12.730570      3.075000  14.0000  95.9600
    149    2 S    16     22.050000     14.549230      1.488300   6.0000  32.0650
    150    2 S    16     22.050000     14.549230      4.661700   6.0000  32.0650
    151    1 Mo   42     -7.875000     15.458550      3.075000  14.0000  95.9600
    152    2 S    16     -7.875000     17.277210      1.488300   6.0000  32.0650
    153    2 S    16     -7.875000     17.277210      4.661700   6.0000  32.0650
    154    1 Mo   42     -4.725000     15.458550      3.075000  14.0000  95.9600
    155    2 S    16     -4.725000     17.277210      1.488300   6.0000  32.0650
    156    2 S    16     -4.725000     17.277210      4.661700   6.0000  32.0650
    157    1 Mo   42     -1.575000     15.458550      3.075000  14.0000  95.9600
    158    2 S    16     -1.575000     17.277210      1.488300   6.0000  32.0650
    159    2 S    16     -1.575000     17.277210      4.661700   6.0000  32.0650
    160    1 Mo   42      1.575000     15.458550      3.075000  14.0000  95.9600
    161    2 S    16      1.575000     17.277210      1.488300   6.0000  32.0650
    162    2 S    16      1.575000     17.277210      4.661700   6.0000  32.0650
    163    1 Mo   42      4.725000     15.458550      3.075000  14.0000  95.9600
    164    2 S    16      4.725000     17.277210      1.488300   6.0000  32.0650
    165    2 S    16      4.725000     17.277210      4.661700   6.0000  32.0650
    166    1 Mo   42      7.875000     15.458550      3.075000  14.0000  95.9600
    167    2 S    16      7.875000     17.277210      1.488300   6.0000  32.0650
    168    2 S    16      7.875000     17.277210      4.661700   6.0000  32.0650
    169    1 Mo   42     11.025000     15.458550      3.075000  14.0000  95.9600
    170    2 S    16     11.025000     17.277210      1.488300   6.0000  32.0650
    171    2 S    16     11.025000     17.277210      4.661700   6.0000  32.0650
    172    1 Mo   42     14.175000     15.458550      3.075000  14.0000  95.9600
    173    2 S    16     14.175000     17.277210      1.488300   6.0000  32.0650
    174    2 S    16     14.175000     17.277210      4.661700   6.0000  32.0650
    175    1 Mo   42     17.325000     15.458550      3.075000  14.0000  95.9600
    176    2 S    16     17.325000     17.277210      1.488300   6.0000  32.0650
    177    2 S    16     17.325000     17.277210      4.661700   6.0000  32.0650
    178    1 Mo   42     20.475000     15.458550      3.075000  14.0000  95.9600
    179    2 S    16     20.475000     17.277210      1.488300   6.0000  32.0650
    180    2 S    16     20.475000     17.277210      4.661700   6.0000  32.0650
    181    1 Mo   42     -9.450000     18.186530      3.075000  14.0000  95.9600
    182    2 S    16     -9.450000     20.005190      1.488300   6.0000  32.0650
    183    2 S    16     -9.450000     20.005190      4.661700   6.0000  32.0650
    187    1 Mo   42     -3.150000     18.186530      3.075000  14.0000  95.9600
    188    2 S    16     -3.150000     20.005190      1.488300   6.0000  32.0650
    189    2 S    16     -3.150000     20.005190      4.661700   6.0000  32.0650
    193    1 Mo   42      3.150000     18.186530      3.075000  14.0000  95.9600
    194    2 S    16      3.150000     20.005190      1.488300   6.0000  32.0650
    195    2 S    16      3.150000     20.005190      4.661700   6.0000  32.0650
    199    1 Mo   42      9.450000     18.186530      3.075000  14.0000  95.9600
    200    2 S    16      9.450000     20.005190      1.488300   6.0000  32.0650
    201    2 S    16      9.450000     20.005190      4.661700   6.0000  32.0650
    205    1 Mo   42     15.750000     18.186530      3.075000  14.0000  95.9600
    206    2 S    16     15.750000     20.005190      1.488300   6.0000  32.0650
    207    2 S    16     15.750000     20.005190      4.661700   6.0000  32.0650
    211    1 Mo   42    -11.025000     20.914510      3.075000  14.0000  95.9600
    212    2 S    16    -11.025000     22.733170      1.488300   6.0000  32.0650
    213    2 S    16    -11.025000     22.733170      4.661700   6.0000  32.0650
    214    1 Mo   42     -7.875000     20.914510      3.075000  14.0000  95.9600
    215    2 S    16     -7.875000     22.733170      1.488300   6.0000  32.0650
    216    2 S    16     -7.875000     22.733170      4.661700   6.0000  32.0650
    217    1 Mo   42     -4.725000     20.914510      3.075000  14.0000  95.9600
    218    2 S    16     -4.725000     22.733170      1.488300   6.0000  32.0650
    219    2 S    16     -4.725000     22.733170      4.661700   6.0000  32.0650
    220    1 Mo   42     -1.575000     20.914510      3.075000  14.0000  95.9600
    221    2 S    16     -1.575000     22.733170      1.488300   6.0000  32.0650
    222    2 S    16     -1.575000     22.733170      4.661700   6.0000  32.0650
    223    1 Mo   42      1.575000     20.914510      3.075000  14.0000  95.9600
    224    2 S    16      1.575000     22.733170      1.488300   6.0000  32.0650
    225    2 S    16      1.575000     22.733170      4.661700   6.0000  32.0650
    226    1 Mo   42      4.725000     20.914510      3.075000  14.0000  95.9600
    227    2 S    16      4.725000     22.733170      1.488300   6.0000  32.0650
    228    2 S    16      4.725000     22.733170      4.661700   6.0000  32.0650
    229    1 Mo   42      7.875000     20.914510      3.075000  14.0000  95.9600
    230    2 S    16      7.875000     22.733170      1.488300   6.0000  32.0650
    231    2 S    16      7.875000     22.733170      4.661700   6.0000  32.0650
    232    1 Mo   42     11.025000     20.914510      3.075000  14.0000  95.9600
    233    2 S    16     11.025000     22.733170      1.488300   6.0000  32.0650
    234    2 S    16     11.025000     22.733170      4.661700   6.0000  32.0650
    235    1 Mo   42     14.175000     20.914510      3.075000  14.0000  95.9600
    236    2 S    16     14.175000     22.733170      1.488300   6.0000  32.0650
    237    2 S    16     14.175000     22.733170      4.661700   6.0000  32.0650
    238    1 Mo   42     17.325000     20.914510      3.075000  14.0000  95.9600
    239    2 S    16     17.325000     22.733170      1.488300   6.0000  32.0650
    240    2 S    16     17.325000     22.733170      4.661700   6.0000  32.0650
    244    1 Mo   42     -9.450000     23.642490      3.075000  14.0000  95.9600
    245    2 S    16     -9.450000     25.461150      1.488300   6.0000  32.0650
    246    2 S    16     -9.450000     25.461150      4.661700   6.0000  32.0650
    250    1 Mo   42     -3.150000     23.642490      3.075000  14.0000  95.9600
    251    2 S    16     -3.150000     25.461150      1.488300   6.0000  32.0650
    252    2 S    16     -3.150000     25.461150      4.661700   6.0000  32.0650
    256    1 Mo   42      3.150000     23.642490      3.075000  14.0000  95.9600
    257    2 S    16      3.150000     25.461150      1.488300   6.0000  32.0650
    258    2 S    16      3.150000     25.461150      4.661700   6.0000  32.0650
    262    1 Mo   42      9.450000     23.642490      3.075000  14.0000  95.9600
    263    2 S    16      9.450000     25.461150      1.488300   6.0000  32.0650
    264    2 S    16      9.450000     25.461150      4.661700   6.0000  32.0650
    268    1 Mo   42     15.750000     23.642490      3.075000  14.0000  95.9600
    269    2 S    16     15.750000     25.461150      1.488300   6.0000  32.0650
    270    2 S    16     15.750000     25.461150      4.661700   6.0000  32.0650
    271    1 Mo   42    -14.175000     26.370470      3.075000  14.0000  95.9600
    272    2 S    16    -14.175000     28.189130      1.488300   6.0000  32.0650
    273    2 S    16    -14.175000     28.189130      4.661700   6.0000  32.0650
    274    1 Mo   42    -11.025000     26.370470      3.075000  14.0000  95.9600
    275    2 S    16    -11.025000     28.189130      1.488300   6.0000  32.0650
    276    2 S    16    -11.025000     28.189130      4.661700   6.0000  32.0650
    277    1 Mo   42     -7.875000     26.370470      3.075000  14.0000  95.9600
    278    2 S    16     -7.875000     28.189130      1.488300   6.0000  32.0650
    279    2 S    16     -7.875000     28.189130      4.661700   6.0000  32.0650
    280    1 Mo   42     -4.725000     26.370470      3.075000  14.0000  95.9600
    281    2 S    16     -4.725000     28.189130      1.488300   6.0000  32.0650
    282    2 S    16     -4.725000     28.189130      4.661700   6.0000  32.0650
    283    1 Mo   42     -1.575000     26.370470      3.075000  14.0000  95.9600
    284    2 S    16     -1.575000     28.189130      1.488300   6.0000  32.0650
    285    2 S    16     -1.575000     28.189130      4.661700   6.0000  32.0650
    286    1 Mo   42      1.575000     26.370470      3.075000  14.0000  95.9600
    287    2 S    16      1.575000     28.189130      1.488300   6.0000  32.0650
    288    2 S    16      1.575000     28.189130      4.661700   6.0000  32.0650
    289    1 Mo   42      4.725000     26.370470      3.075000  14.0000  95.9600
    290    2 S    16      4.725000     28.189130      1.488300   6.0000  32.0650
    291    2 S    16      4.725000     28.189130      4.661700   6.0000  32.0650
    292    1 Mo   42      7.875000     26.370470      3.075000  14.0000  95.9600
    293    2 S    16      7.875000     28.189130      1.488300   6.0000  32.0650
    294    2 S    16      7.875000     28.189130      4.661700   6.0000  32.0650
    295    1 Mo   42     11.025000     26.370470      3.075000  14.0000  95.9600
    296    2 S    16     11.025000     28.189130      1.488300   6.0000  32.0650
    297    2 S    16     11.025000     28.189130      4.661700   6.0000  32.0650
    298    1 Mo   42     14.175000     26.370470      3.075000  14.0000  95.9600
    299    2 S    16     14.175000     28.189130      1.488300   6.0000  32.0650
    300    2 S    16     14.175000     28.189130      4.661700   6.0000  32.0650



 SCF PARAMETERS         Density guess:                                   RESTART
                        --------------------------------------------------------
                        max_scf:                                             100
                        max_scf_history:                                       0
                        max_diis:                                              4
                        --------------------------------------------------------
                        eps_scf:                                        1.00E-09
                        eps_scf_history:                                0.00E+00
                        eps_diis:                                       1.00E-01
                        eps_eigval:                                     1.00E-05
                        --------------------------------------------------------
                        added MOs                                      5600    0
                        --------------------------------------------------------
                        Mixing method:                            BROYDEN_MIXING
                                                charge density mixing in g-space
                        --------------------------------------------------------
                        No outer SCF

 PW_GRID| Information for grid number                                          1
[...]
  1358 ( vir )             1.891          -3.744           4.676           2.823
  1359 ( vir )             1.892          -3.469           4.231           2.653
  1360 ( vir )             1.892          -3.469           4.231           2.653
  1361 ( vir )             1.898          -3.678           4.612           2.832
  1362 ( vir )             1.898          -3.678           4.612           2.832
  1363 ( vir )             1.913          -3.782           4.726           2.856
  1364 ( vir )             1.913          -3.781           4.726           2.857
  1365 ( vir )             1.915          -3.687           4.604           2.832
  1366 ( vir )             1.915          -3.687           4.604           2.832
  1367 ( vir )             1.925          -3.754           4.689           2.861
  1368 ( vir )             1.925          -3.753           4.689           2.861
  1369 ( vir )             1.936          -3.769           4.691           2.858
  1370 ( vir )             1.936          -3.769           4.691           2.858
  1371 ( vir )             1.943          -3.671           4.580           2.852
  1372 ( vir )             1.943          -3.672           4.580           2.851
  1373 ( vir )             1.955          -3.710           4.631           2.876
  1374 ( vir )             1.955          -3.710           4.631           2.875
  1375 ( vir )             1.959          -3.781           4.727           2.905
  1376 ( vir )             1.959          -3.782           4.727           2.905
  1377 ( vir )             1.979          -3.897           4.867           2.950
  1378 ( vir )             1.979          -3.896           4.867           2.951
  1379 ( vir )             1.983          -3.837           4.794           2.940
  1380 ( vir )             1.983          -3.837           4.794           2.939
  1381 ( vir )             1.989          -3.501           4.245           2.733
  1382 ( vir )             1.989          -3.501           4.245           2.733
  1383 ( vir )             2.012          -3.984           4.978           3.006
  1384 ( vir )             2.012          -3.983           4.978           3.007
  1385 ( vir )             2.029          -4.061           5.078           3.046
  1386 ( vir )             2.029          -4.061           5.078           3.046
  1387 ( vir )             2.031          -3.927           4.897           3.002
  1388 ( vir )             2.042          -3.870           4.784           2.956
  1389 ( vir )             2.042          -3.870           4.784           2.956
  1390 ( vir )             2.043          -4.051           5.062           3.053
  1391 ( vir )             2.043          -4.050           5.062           3.055
  1392 ( vir )             2.050          -3.510           4.239           2.778
  1393 ( vir )             2.050          -3.510           4.239           2.778
  1394 ( vir )             2.051          -3.989           4.975           3.037
  1395 ( vir )             2.054          -4.051           5.058           3.061
  1396 ( vir )             2.054          -4.050           5.058           3.062
  1397 ( vir )             2.064          -3.673           4.507           2.898
  1398 ( vir )             2.064          -3.673           4.507           2.898
  1399 ( vir )             2.064          -3.576           4.373           2.862
  1400 ( vir )             2.064          -3.576           4.373           2.862
  1401 ( vir )             2.077          -3.767           4.632           2.942
  1402 ( vir )             2.077          -3.767           4.632           2.942
  1403 ( vir )             2.091          -3.905           4.817           3.002
  1404 ( vir )             2.091          -3.904           4.817           3.003
  1405 ( vir )             2.098          -3.876           4.774           2.996
  1406 ( vir )             2.098          -3.876           4.775           2.997
  1407 ( vir )             2.111          -3.610           4.403           2.904
  1408 ( vir )             2.111          -3.610           4.403           2.904
  1409 ( vir )             2.136          -3.534           4.247           2.849
  1410 ( vir )             2.136          -3.534           4.247           2.849
  1411 ( vir )             2.152          -3.608           4.387           2.930
  1412 ( vir )             2.152          -3.609           4.387           2.930
  1413 ( vir )             2.153          -3.920           4.815           3.048
  1414 ( vir )             2.153          -3.920           4.815           3.047
  1415 ( vir )             2.154          -3.769           4.606           2.991
  1416 ( vir )             2.164          -4.019           4.951           3.096
  1417 ( vir )             2.164          -4.019           4.951           3.096
  1418 ( vir )             2.164          -3.678           4.476           2.963
  1419 ( vir )             2.164          -3.677           4.476           2.963
  1420 ( vir )             2.170          -3.857           4.720           3.034
  1421 ( vir )             2.174          -3.640           4.421           2.955
  1422 ( vir )             2.174          -3.639           4.421           2.956
  1423 ( vir )             2.195          -3.887           4.917           3.226
  1424 ( vir )             2.195          -3.887           4.917           3.225
  1425 ( vir )             2.202          -3.995           4.900           3.107
  1426 ( vir )             2.202          -3.995           4.900           3.106
  1427 ( vir )             2.213          -3.978           4.870           3.105
  1428 ( vir )             2.213          -3.977           4.870           3.105
  1429 ( vir )             2.222          -3.875           4.893           3.240
  1430 ( vir )             2.222          -3.876           4.893           3.240
  1431 ( vir )             2.228          -4.021           4.925           3.132
  1432 ( vir )             2.228          -4.021           4.925           3.131
  1433 ( vir )             2.231          -3.752           4.701           3.180
  1434 ( vir )             2.231          -3.752           4.701           3.180
  1435 ( vir )             2.231          -3.585           4.326           2.973
  1436 ( vir )             2.231          -3.585           4.326           2.973
  1437 ( vir )             2.233          -3.929           4.974           3.279
  1438 ( vir )             2.234          -3.805           4.784           3.213
  1439 ( vir )             2.234          -3.805           4.784           3.213
  1440 ( vir )             2.239          -3.728           4.661           3.172
  1441 ( vir )             2.239          -3.728           4.661           3.172
  1442 ( vir )             2.242          -3.840           4.836           3.238
  1443 ( vir )             2.242          -3.840           4.836           3.238
  1444 ( vir )             2.247          -4.121           5.066           3.192
  1445 ( vir )             2.247          -4.121           5.066           3.192
  1446 ( vir )             2.259          -3.775           4.734           3.218
  1447 ( vir )             2.259          -3.775           4.734           3.218
  1448 ( vir )             2.283          -4.142           5.074           3.215
  1449 ( vir )             2.283          -4.142           5.073           3.215
  1450 ( vir )             2.288          -3.961           5.013           3.339
  1451 ( vir )             2.300          -3.578           4.293           3.015
  1452 ( vir )             2.300          -3.578           4.293           3.015
  1453 ( vir )             2.310          -3.694           4.592           3.207
  1454 ( vir )             2.314          -3.590           4.275           2.999
  1455 ( vir )             2.335          -3.899           4.906           3.342
  1456 ( vir )             2.335          -3.899           4.906           3.342
  1457 ( vir )             2.339          -4.244           5.198           3.293
  1458 ( vir )             2.339          -4.244           5.198           3.293
  1459 ( vir )             2.349          -4.216           5.168           3.301
  1460 ( vir )             2.349          -4.217           5.168           3.300
  1461 ( vir )             2.354          -4.257           5.221           3.318
  1462 ( vir )             2.354          -4.257           5.221           3.318
  1463 ( vir )             2.374          -3.585           4.276           3.065
  1464 ( vir )             2.374          -3.585           4.276           3.065
  1465 ( vir )             2.374          -3.677           4.549           3.246
  1466 ( vir )             2.381          -3.999           5.052           3.434
  1467 ( vir )             2.381          -3.999           5.052           3.434
  1468 ( vir )             2.398          -4.245           5.192           3.346
  1469 ( vir )             2.398          -4.246           5.192           3.345
  1470 ( vir )             2.403          -4.342           5.321           3.382
  1471 ( vir )             2.403          -4.343           5.321           3.381
  1472 ( vir )             2.403          -4.320           5.295           3.378
  1473 ( vir )             2.403          -4.320           5.295           3.378
  1474 ( vir )             2.404          -3.600           4.286           3.091
  1475 ( vir )             2.404          -3.600           4.286           3.090
  1476 ( vir )             2.418          -4.364           5.346           3.400
  1477 ( vir )             2.418          -4.365           5.346           3.400
  1478 ( vir )             2.424          -4.358           5.341           3.407
  1479 ( vir )             2.424          -4.359           5.341           3.407
  1480 ( vir )             2.431          -4.260           5.202           3.372
  1481 ( vir )             2.431          -4.260           5.202           3.373
  1482 ( vir )             2.443          -3.666           4.514           3.292
  1483 ( vir )             2.443          -3.666           4.514           3.292
  1484 ( vir )             2.444          -3.939           4.943           3.448
  1485 ( vir )             2.444          -3.939           4.943           3.448
  1486 ( vir )             2.447          -3.634           4.299           3.111
  1487 ( vir )             2.450          -3.615           4.291           3.126
  1488 ( vir )             2.450          -3.615           4.291           3.126
  1489 ( vir )             2.455          -4.404           5.394           3.446
  1490 ( vir )             2.455          -4.404           5.394           3.445
  1491 ( vir )             2.460          -4.019           5.065           3.506
  1492 ( vir )             2.460          -4.019           5.065           3.506
  1493 ( vir )             2.488          -4.322           5.269           3.435
  1494 ( vir )             2.488          -4.322           5.269           3.435
  1495 ( vir )             2.517          -4.395           5.376           3.498
  1496 ( vir )             2.517          -4.396           5.376           3.498
  1497 ( vir )             2.530          -4.359           5.307           3.478
  1498 ( vir )             2.530          -4.359           5.307           3.478
  1499 ( vir )             2.542          -3.647           4.302           3.197
  1500 ( vir )             2.559          -4.443           5.434           3.551
   
  GW direct gap at current kpoint (eV)                                     2.473
  
   
  SCF valence band maximum (eV)                                           -0.333
  SCF conduction band minimum (eV)                                         1.501
  SCF bandgap (eV)                                                         1.834
   
  GW valence band maximum (eV)                                            -0.088
  GW conduction band minimum (eV)                                          2.369
  GW bandgap (eV)                                                          2.457
 
  Total RI-RPA Time=                                                13773.597435
 
 MB

 ENERGY| Total FORCE_EVAL ( QS ) energy [a.u.]:            -8880.389931856738258

 -------------------------------------------------------------------------------
 -                                                                             -
 -                                T I M I N G                                  -
 -                                                                             -
 -------------------------------------------------------------------------------
 SUBROUTINE                       CALLS  ASD         SELF TIME        TOTAL TIME
                                MAXIMUM       AVERAGE  MAXIMUM  AVERAGE  MAXIMUM
 CP2K                                 1  1.0     0.06     0.11 14121.18 14121.32
 qs_energies                          1  2.0     0.00     0.01 14116.75 14116.93
 mp2_main                             1  3.0     0.00     0.00 13778.59 13778.77
 mp2_gpw_main                         1  4.0     0.01     0.01 13773.57 13773.75
 rpa_ri_compute_en                    1  5.0     0.00     0.00 12609.08 12609.24
 rpa_num_int                          1  6.0     0.00     0.02 12089.41 12089.61
 dbt_total                         1907  9.8     0.01     0.35  6126.56  6126.62
 dbt_contract                       765 11.0     0.04     1.10  5508.58  5509.60
 dbt_tas_total                     1206 13.4   165.89   192.01  5430.71  5430.76
 dbt_tas_multiply                  1065 12.8     0.00     0.21  5404.98  5405.04
 rpa_num_int_RPA_matrix_operati      10  7.0     0.00     0.00  5142.09  5142.20
 invert_eps_compute_W_and_Erpa_      10  8.0     0.01     0.05  5142.01  5142.11
 compute_QP_energies                  1  7.0     0.00     0.01  5124.34  5124.39
 compute_self_energy_cubic_gw_k       1  8.0     0.18     0.29  5124.05  5124.25
 compute_Q_kp_RPA                   260  9.0     0.50     0.67  3838.35  3839.46
 dbt_tas_dbm                       1065 14.8     0.00     0.16  3819.98  3820.02
 cp_cfm_power                       312  9.7     0.44     0.79  3796.16  3796.95
 cp_cfm_heevd                       441 10.2  3761.87  3764.84  3761.87  3764.84
 dbm_multiply                      1065 16.8  3225.40  3443.63  3225.40  3443.63
 tensor_operation_3c_W               99  9.0     0.00     0.03  2305.19  2309.79
 parallel_gemm_cfm                 4194 10.2     0.02     1.54  2091.20  2106.53
 parallel_gemm_cfm_cosma           4194 11.2  2091.18  2106.51  2091.18  2106.51
 contract_to_self_energy            198  9.0     0.01     0.23  2090.49  2094.50
 compute_mat_P_omega                  1  7.0     0.00     0.02  1819.02  1819.09
 compute_mat_P_omega_contract        10  8.0     4.68     6.04  1795.77  1796.09
 dbt_tas_mm_3N                      198 16.5     0.00     0.05  1635.33  1757.51
 mp_sync                           9706 12.6  1036.34  1216.73  1036.34  1216.73
 mp2_ri_gpw_compute_in                1  5.0     0.01     0.01  1164.46  1164.47
 compute_Wc_real_space_tau_GW       260  9.0     0.00     0.06  1089.38  1091.30
 get_2c_integrals                     1  6.0     0.00     0.00  1082.02  1082.03
 dbt_tas_mm_2                       289 15.0     0.00     0.10  1041.04  1041.05
 trafo_to_mo_and_kpoints             21  9.0     0.23     1.22   675.67   676.12
 dbt_tas_replicate                  927 15.0    29.74   315.42   516.34   658.96
 inversion_of_M_and_mult_with_c       1  7.0     0.00     0.03   654.55   654.56
 compute_Wc_real_space_tau_GW_3     260 10.0     0.00     0.04   566.43   573.79
 mp_waitall_2                      5536 16.8   433.20   573.08   433.20   573.08
 compute_mat_P_omega_calc_M_occ      90  9.0     4.56     6.02   552.08   552.09
 dbt_copy                           947 10.8     0.05     0.37   473.52   523.15
 get_bandstruc_and_k_dependent_       1  6.0     0.00     0.00   519.67   519.72
 create_kp_and_calc_kp_orbitals       3  7.0     0.01     0.08   519.66   519.72
 dbt_reshape                        927 11.8    80.37   128.44   468.99   518.52
 compute_mat_P_omega_calc_P_t        90  9.0     0.00     0.02   496.93   496.93
 cp_cfm_geeig                       129  8.0     0.01     0.11   484.47   490.84
 dbt_tas_mm_3T                      396 16.5     0.00     0.11   413.06   450.97
 dbm_redistribute                  1794 15.7   330.52   409.48   330.52   409.48
 dbt_communicate_buffer             927 12.8     0.27    18.71   364.92   393.48
 dbt_tas_mm_1N                      182 15.0     0.00     0.05   313.00   383.99
 convert_to_new_pgrid              3195 14.8    40.21    78.60   298.23   367.28
 compute_V_by_lattice_sum             1  7.0     0.00     0.02   364.38   364.39
 mp_alltoall_i                     3712 15.1   327.77   361.66   327.77   361.66
 build_2c_coulomb_matrix_kp           2  8.0     0.00     0.00   276.77   361.29
 lattice_sum                          2  9.0     9.98    12.14   276.77   361.29
 compute_mat_P_omega_calc_M_vir      90  9.0     0.00     0.01   352.94   352.94
 mp_alltoall_i22                  15475 12.6   247.46   352.16   247.46   352.16
 compute_v_transl                 13312 10.0   265.88   348.43   266.65   349.38
 compute_Wc_real_space_tau_GW_2     260 10.0     0.15     0.21   342.76   346.71
 dbt_tas_communicate_buffer        1854 17.3     0.38    37.37   208.09   345.55
 dbt_tas_replicate_alltoall         717 16.3     0.00     0.05   315.44   344.43
 scf_env_do_scf                       1  3.0     0.00     0.01   333.49   334.05
 scf_env_do_scf_inner_loop           55  4.0     0.00     0.04   333.48   334.05
 cp_cfm_cholesky_invert             260 11.0   331.85   334.00   331.85   334.00
 copy_dbcsr_to_fm                  3888 10.4     0.08     2.42   208.96   309.30
 dbt_tas_replicate_communicate_     717 16.3     0.08     0.17   161.56   298.35
 mp_cart_rank                   ******* 16.2     2.22   272.75     2.22   272.75
 dbt_tas_estimate_result_nze        300 14.0     3.73     4.29   272.32   272.33
 dbcsr_desymmetrize_deep           3948 11.4     2.29     6.57   153.73   253.97
 mp_isend_im2                    140531 13.7   125.89   220.68   125.89   220.68
 compute_Wc_real_space_tau_GW_4     260 10.0     3.75    87.32     9.31   174.49
 cp_fm_copy_general                 675 10.1     0.00     0.13   170.34   174.26
 cp_fm_start_copy_general           675 11.1     1.04     1.85   169.19   173.26
 compute_Wc_real_space_tau_GW_5     260 10.0     0.01     0.10   168.77   172.77
 mp_allgather_i                    1350 12.1   166.98   171.16   166.98   171.16
 compute_mat_P_omega_copy_M_vir      90  9.0     0.00     0.03   163.77   164.75
 cp_cfm_cholesky_decompose          389  9.7   164.50   164.60   164.50   164.60
 real_space_to_kpoint_transform      37  9.8     5.82    10.63   155.21   155.51
 cholesky_decomp_Q                  260  9.0     0.83     1.11   153.32   153.98
 dbcsr_new_transposed              7504 10.8     1.46     3.89   147.53   150.61
 dbcsr_redistribute                7448 11.9     4.21    13.25   145.90   149.40
 cp_cfm_triangular_multiply         387  9.0   136.71   144.04   136.71   144.04
 -------------------------------------------------------------------------------

 The number of warnings for this run is : 3
 
 -------------------------------------------------------------------------------
  **** **** ******  **  PROGRAM ENDED AT                 2023-03-05 14:22:55.839
 ***** ** ***  *** **   PROGRAM RAN ON                          f0601.nhr.fau.de
 **    ****   ******    PROGRAM RAN BY                                  b165da10
 ***** **    ** ** **   PROGRAM PROCESS ID                               2290379
  **** **  *******  **  PROGRAM STOPPED IN /home/atuin/b165da/b165da10/17_MoS2_f
                                           ritz/10x10/1_reg_RI_1e-2
