     732
 i =       16, E =    -21467.6036229922
 Mo        35.5318600905        0.0001541473       13.4822538526
 Mo        23.6804416099        0.0035871903       13.4965315121
 Mo        44.6410454596       29.9872466271       13.5041543357
 Mo        47.8321566332       29.1897531792       13.5008734588
 Mo        51.0232442417       28.3971072648       13.4900995442
 Mo        11.8481960658       -0.0048983552       13.4965927230
 Mo        32.8029809645       29.9835163011       13.5055416540
 Mo        35.9842196349       29.1924833578       13.5017278776
 Mo        39.1689881466       28.4043985240       13.4877314727
 Mo        42.3641040737       27.6220807149       13.4872350314
 Mo        45.5573721761       26.8321185715       13.4957899485
 Mo        48.7441787411       26.0352069206       13.4968037891
 Mo        20.9599714342       29.9896842690       13.4901122112
 Mo        24.1449803979       29.1968743852       13.4968163930
 Mo        27.3285275340       28.4040962844       13.4975337364
 Mo        30.5189574438       27.6178161867       13.5051154656
 Mo        33.7087198870       26.8259313308       13.5085117636
 Mo        36.8967512693       26.0306739554       13.4948610266
 Mo        40.0898714554       25.2456554770       13.4839512814
 Mo        43.2829123026       24.4646929822       13.4911566992
 Mo        46.4658467855       23.6745266624       13.4975441145
 Mo        18.6837741997       27.6151613501       13.4931121606
 Mo        21.8690420255       26.8297953065       13.5009006264
 Mo        25.0482092391       26.0385177023       13.4957926190
 Mo        28.2356881195       25.2524952540       13.4911219936
 Mo        31.4310184297       24.4660204995       13.4980512449
 Mo        34.6228128624       23.6694163101       13.4995813974
 Mo        37.8126210048       22.8746927853       13.4936158244
 Mo        41.0040865858       22.0907280411       13.4980717842
 Mo        44.1896697172       21.3046640042       13.5051182881
 Mo        11.8368916695       20.5132633612       13.4965733088
 Mo        16.4001749541       25.2458589030       13.4993029944
 Mo        19.5898236432       24.4601833756       13.5084385476
 Mo        22.7738808408       23.6674508695       13.5042005089
 Mo        25.9606373948       22.8780402013       13.4872710121
 Mo        29.1558546118       22.0968100358       13.4839500956
 Mo        32.3478022683       21.3101586712       13.4936269092
 Mo        35.5318445355       20.5148532289       13.4969864803
 Mo        38.7183046934       19.7248285434       13.4995710211
 Mo        41.9089740633       18.9381890020       13.5084981395
 Mo        45.0963712439       18.1438057874       13.5054967744
 Mo        14.1149168905       22.8826900293       13.4957954318
 Mo        17.3055217567       22.0968209500       13.5009244166
 Mo        20.4981002984       21.3047591035       13.5062103845
 Mo        23.6880066255       20.5067439892       13.4965791807
 Mo        26.8806528730       19.7199271297       13.4877564257
 Mo        30.0725512057       18.9390067757       13.4948814214
 Mo        33.2544773406       18.1503315645       13.4996013535
 Mo        36.4351565508       17.3596852833       13.4936089374
 Mo        39.6262720773       16.5748829742       13.4948412851
 Mo        42.8207629747       15.7842840362       13.5017055616
 Mo        15.0257929588       19.7281065405       13.4864862155
 Mo        18.2218189687       18.9438647425       13.4919981668
 Mo        21.4128038238       18.1490194832       13.4976813792
 Mo        24.6004443571       17.3534362043       13.4960725715
 Mo        27.7905949639       16.5677875578       13.5017107930
 Mo        30.9778652546       15.7804508625       13.5085163761
 Mo        34.1604763852       14.9878156445       13.4980679180
 Mo        37.3498678485       14.2020829211       13.4839428159
 Mo        40.5459223953       13.4202405117       13.4877524031
 Mo        12.7526286812       17.3519827697       13.4886693623
 Mo        15.9474765355       16.5705591834       13.4840539698
 Mo        19.1379562169       15.7864853988       13.4937461327
 Mo        22.3194727497       14.9933048504       13.4969880493
 Mo        25.5040868498       14.2036580469       13.4973834258
 Mo        28.6962212368       13.4172627499       13.5054914200
 Mo        31.8869497143       12.6220700019       13.5051034304
 Mo        35.0770000618       11.8273426472       13.4911358051
 Mo        38.2708439729       11.0443767348       13.4872771737
 Mo         5.9282219390       10.2621037024       13.4966052095
 Mo        10.4789057617       14.9861252861       13.4974017473
 Mo        13.6698913346       14.1960915497       13.4920840596
 Mo        16.8609222986       13.4138829420       13.4997553190
 Mo        20.0433066198       12.6253275292       13.5027188873
 Mo        23.2243884439       11.8351825331       13.4920779983
 Mo        26.4161234423       11.0516135094       13.4886681881
 Mo        29.6117970440       10.2641125121       13.4965787471
 Mo        32.8012504407        9.4659277564       13.4975340259
 Mo        35.9900403381        8.6738994253       13.4957774488
 Mo        39.1806306269        7.8898959865       13.5041804975
 Mo         8.2029429205       12.6287059092       13.4960877795
 Mo        11.3873784313       11.8333424090       13.4969767241
 Mo        14.5761787839       11.0461137250       13.5026848921
 Mo        17.7655962101       10.2575077882       13.5099687666
 Mo        20.9514499566        9.4627942865       13.4997422259
 Mo        24.1419302006        8.6755328677       13.4840458742
 Mo        27.3373468581        7.8949871229       13.4865395013
 Mo        30.5247522073        7.1064968321       13.4958370326
 Mo        33.7065048821        6.3124697425       13.4968010205
 Mo        36.8944039302        5.5250207852       13.5008513621
 Mo         9.1078133218        9.4703275610       13.4976903315
 Mo        12.2912345323        8.6814604070       13.4937048727
 Mo        15.4844887643        7.8958320557       13.4997152644
 Mo        18.6773729024        7.1010466575       13.5026989534
 Mo        21.8676751005        6.3045271700       13.4937170356
 Mo        25.0601203330        5.5192587332       13.4920040427
 Mo        28.2488091540        4.7363033323       13.5009718714
 Mo        31.4286280575        3.9458029242       13.4993298441
 Mo        34.6124028593        3.1577616712       13.4900863305
 Mo         6.8321271031        7.1003255313       13.5062337509
 Mo        10.0149181401        6.3093839506       13.4920037755
 Mo        13.2074469016        5.5264132692       13.4840410919
 Mo        16.4025972883        4.7412334487       13.4920900829
 Mo        19.5900562669        3.9458398741       13.4969829823
 Mo        22.7762558613        3.1531428290       13.4976500740
 Mo        25.9665465503        2.3674137350       13.5061929264
 Mo        29.1533520740        1.5763286253       13.5084361730
 Mo        32.3386838529        0.7835207460       13.4931054159
 Mo         4.5536221891        4.7359936667       13.5084193331
 Mo         7.7424890657        3.9394019835       13.5009500777
 Mo        10.9337139692        3.1494401837       13.4865279725
 Mo        14.1281161104        2.3689115819       13.4887153362
 Mo        17.3139053356        1.5827285128       13.4974339099
 Mo        20.4935000215        0.7903302732       13.4960654908
 Mo         2.2743852843        2.3738241606       13.4930849970
 Mo         5.4680385792        1.5808455391       13.4993089724
 Mo         8.6572171063        0.7832956123       13.4958272500
 Se        51.4804278651       30.2362502293       15.1649546397
 Se        39.6187107039       30.2434318398       15.1760823280
 Se        42.8097782586       29.4627911749       15.1781075479
 Se        46.0098349169       28.6697915581       15.1866171944
 Se        49.2065889777       27.8692980820       15.1809788591
 Se        27.7927926631       30.2399139658       15.1826689345
 Se        30.9818424424       29.4587763886       15.1894114616
 Se        34.1681868575       28.6662529843       15.1937110941
 Se        37.3513479159       27.8683173699       15.1762617957
 Se        40.5396268292       27.0893519629       15.1605243003
 Se        43.7341185589       26.3133047573       15.1713159331
 Se        46.9241490957       25.5167207869       15.1840212414
 Se        19.1398291294       29.4648839889       15.1649647371
 Se        22.3266005509       28.6791392966       15.1810181792
 Se        25.5052100411       27.8787100350       15.1840056036
 Se        28.6883757194       27.0898430396       15.1832093894
 Se        31.8825988915       26.3035789981       15.1914647412
 Se        35.0797762768       25.5031819274       15.1873947564
 Se        38.2738955727       24.7116880799       15.1699833743
 Se        41.4651858917       23.9388157403       15.1694558410
 Se        44.6493538953       23.1544355509       15.1832531822
 Se        47.8251822428       22.3549500882       15.1826427692
 Se        16.8654841628       27.0864328972       15.1760432105
 Se        20.0528083528       26.3072051667       15.1865299262
 Se        23.2317028588       25.5104116214       15.1866546555
 Se        26.4103540411       24.7177672288       15.1712853115
 Se        29.6012016856       23.9401400570       15.1694301782
 Se        32.7998842660       23.1517656541       15.1819930694
 Se        35.9939097924       22.3504765899       15.1836240413
 Se        39.1830738698       21.5628367344       15.1819733488
 Se        42.3712630345       20.7813037560       15.1914692933
 Se        45.5541395949       19.9837581020       15.1893879690
 Se        14.5758605764       24.7189351082       15.1844845218
 Se        17.7641600466       23.9354049648       15.1903264787
 Se        20.9553441058       23.1422693804       15.1952162658
 Se        24.1448580615       22.3424963398       15.1781218562
 Se        27.3355112106       21.5632787204       15.1605467596
 Se        30.5274940731       20.7899729387       15.1700148986
 Se        33.7123404208       19.9960229845       15.1836582594
 Se        36.8921516173       19.1973288459       15.1836092332
 Se        40.0795296949       18.4126557069       15.1873734248
 Se        43.2746192593       17.6205834425       15.1936830077
 Se        15.4744244805       21.5667219242       15.1769700032
 Se        18.6695775513       20.7832860092       15.1845851784
 Se        21.8691484197       19.9839330672       15.1868932586
 Se        25.0643105402       19.1886833557       15.1760635244
 Se        28.2549820451       18.4126877774       15.1762571083
 Se        31.4390713349       17.6280245111       15.1874212146
 Se        34.6154490071       16.8292499728       15.1820000097
 Se        37.7970438667       16.0422226623       15.1699771073
 Se        40.9920609308       15.2628845952       15.1762594093
 Se        13.2042117156       19.1913039340       15.1687802769
 Se        16.3952051432       18.4163759222       15.1628804278
 Se        19.5907032737       17.6325449036       15.1779828163
 Se        22.7799605280       16.8315544745       15.1847294229
 Se        25.9659440670       16.0401766650       15.1849370321
 Se        29.1555516511       15.2570383556       15.1936827585
 Se        32.3444977949       14.4589754406       15.1914691558
 Se        35.5320418779       13.6649297624       15.1694320600
 Se        38.7233161866       12.8912753630       15.1605469324
 Se        41.9153533415       12.1117720008       15.1761536019
 Se        10.9373382571       16.8198443255       15.1809407577
 Se        14.1299972437       16.0374469385       15.1646910632
 Se        17.3202285042       15.2646793173       15.1726030425
 Se        20.5015372206       14.4726052542       15.1843803733
 Se        23.6780822241       13.6743079138       15.1809514974
 Se        26.8645229297       12.8902487025       15.1809293509
 Se        30.0624114075       12.1013495108       15.1893995758
 Se        33.2606826933       11.2995439291       15.1832174828
 Se        36.4539728537       10.5127674644       15.1712884595
 Se        39.6437430558        9.7385304673       15.1781374178
 Se         8.6587169027       14.4667057947       15.1849591111
 Se        11.8515536806       13.6682481339       15.1809556160
 Se        15.0410662659       12.8875266930       15.1826015289
 Se        18.2271534511       12.1016027004       15.1919736596
 Se        21.4071666860       11.3024591442       15.1826190720
 Se        24.5906075519       10.5165369188       15.1646874764
 Se        27.7848791307        9.7414093088       15.1688003538
 Se        30.9804397702        8.9489531282       15.1826592655
 Se        34.1691219219        8.1483763751       15.1839905666
 Se        37.3568761068        7.3636674610       15.1865971059
 Se         9.5663788956       11.3118455445       15.1847397122
 Se        12.7484932711       10.5181310008       15.1843234684
 Se        15.9389982226        9.7340052758       15.1919421122
 Se        19.1334697575        8.9361968978       15.1919500366
 Se        22.3262340127        8.1400847245       15.1725683345
 Se        25.5182069728        7.3653872091       15.1628871280
 Se        28.7069185591        6.5876023935       15.1770352838
 Se        31.8861258625        5.7896325774       15.1845247072
 Se        35.0652823633        4.9954160227       15.1809630661
 Se         7.2916478135        8.9470146522       15.1868615144
 Se        10.4673380642        8.1493725317       15.1779650784
 Se        13.6532160169        7.3670466914       15.1725534085
 Se        16.8514361307        6.5818252061       15.1826110149
 Se        20.0496767473        5.7810291427       15.1843468526
 Se        23.2416577970        4.9898480421       15.1779385886
 Se        26.4307871825        4.2121978109       15.1845908920
 Se        29.6133361919        3.4202414852       15.1903644173
 Se        32.7915693699        2.6230140901       15.1760566091
 Se        35.9781733521        1.8427642888       15.1649469262
 Se         5.0133710687        6.5763956824       15.1952111452
 Se         8.1992320746        5.7763351788       15.1845942611
 Se        11.3862819724        4.9901126166       15.1628856838
 Se        14.5791014496        4.2178742866       15.1647158313
 Se        17.7701076931        3.4292407515       15.1809935973
 Se        20.9534045241        2.6283436464       15.1847146723
 Se        24.1387384607        1.8407757261       15.1867728618
 Se        27.3308228418        1.0531482905       15.1951949725
 Se        30.5230331461        0.2523363570       15.1865121613
 Se         2.7237801515        4.2122738606       15.1864891245
 Se         5.9221141140        3.4161512721       15.1903375106
 Se         9.1183282923        2.6174987535       15.1770005475
 Se        12.3106100628        1.8391271621       15.1687916284
 Se        15.4978222601        1.0617445187       15.1810012366
 Se        18.6750414923        0.2648990083       15.1849698935
 Se         3.6426252369        1.0623721914       15.1760606210
 Se         6.8377215953        0.2631990405       15.1845137266
 Se        51.4726914807       30.2412446627       11.8025059166
 Se        39.6271586332       30.2493144538       11.8070649009
 Se        42.8219148825       29.4667971130       11.8101174449
 Se        46.0095619582       28.6741508301       11.8141483340
 Se        49.1973109605       27.8752924215       11.8095504228
 Se        27.7915632431       30.2418218543       11.8103026389
 Se        30.9840757383       29.4534847225       11.8163593319
 Se        34.1639980319       28.6646296163       11.8193320799
 Se        37.3454325932       27.8754453968       11.8086921482
 Se        40.5419972053       27.0917717156       11.8003007411
 Se        43.7376851002       26.3064643523       11.8051765593
 Se        46.9228629677       25.5136878231       11.8100997088
 Se        19.1393608011       29.4556854091       11.8025300928
 Se        22.3260319571       28.6681276640       11.8095763836
 Se        25.5084596146       27.8791560680       11.8101118214
 Se        28.7000918633       27.0943950752       11.8117577025
 Se        31.8890986584       26.3070953346       11.8179372821
 Se        35.0718264339       25.5113513976       11.8149032164
 Se        38.2638617017       24.7164111492       11.8046333928
 Se        41.4620912929       23.9287744829       11.8050138808
 Se        44.6474051380       23.1420387902       11.8117749904
 Se        47.8273969407       22.3550930293       11.8102943002
 Se        16.8612547465       27.0828185993       11.8080206970
 Se        20.0504473450       26.2956834901       11.8148520108
 Se        23.2280316553       25.5079881277       11.8141796743
 Se        26.4144485335       24.7242512322       11.8051897975
 Se        29.6114363700       23.9424607537       11.8049801782
 Se        32.8013319592       23.1518741606       11.8108133163
 Se        35.9881812385       22.3541045868       11.8102586011
 Se        39.1824420712       21.5615326507       11.8108340232
 Se        42.3710449774       20.7739330128       11.8179596133
 Se        45.5484091058       19.9844916062       11.8163175320
 Se        14.5789241052       24.7215650963       11.8108040715
 Se        17.7710953328       23.9345541862       11.8168886908
 Se        20.9530634499       23.1442891378       11.8204011813
 Se        24.1352958703       22.3509927733       11.8101971710
 Se        27.3321815470       21.5641121424       11.8003189748
 Se        30.5284048956       20.7789199899       11.8046475723
 Se        33.7120386389       19.9892795105       11.8102677540
 Se        36.8981148333       19.2004796523       11.8102697194
 Se        40.0905686091       18.4154511619       11.8149070883
 Se        43.2752764116       17.6250118195       11.8192921648
 Se        15.4864510708       21.5726927298       11.8082012934
 Se        18.6785764703       20.7869640965       11.8137285475
 Se        21.8634309695       19.9905166670       11.8139576057
 Se        25.0549600281       19.1931012733       11.8071374242
 Se        28.2517511299       18.4040378802       11.8087308569
 Se        31.4359624539       17.6170807186       11.8149423782
 Se        34.6145945579       16.8304637338       11.8108293312
 Se        37.8061316391       16.0485322230       11.8046215678
 Se        41.0011751401       15.2643961253       11.8086840009
 Se        13.2024472370       19.1984579472       11.8046308161
 Se        16.4012232402       18.4159544400       11.8014891402
 Se        19.5925598953       17.6273867959       11.8081029476
 Se        22.7779235920       16.8323550384       11.8102975174
 Se        25.9700059603       16.0414726096       11.8120315403
 Se        29.1590688942       15.2542556350       11.8193149319
 Se        32.3382077081       14.4628603636       11.8179449897
 Se        35.5248833480       13.6726258969       11.8049900073
 Se        38.7242378204       12.8879642221       11.8003205772
 Se        41.9161951972       12.1014729339       11.8070956911
 Se        10.9265508697       16.8288493916       11.8111059570
 Se        14.1229490722       16.0376728446       11.8021647428
 Se        17.3186190820       15.2515962523       11.8064129661
 Se        20.5004933896       14.4639289796       11.8114381047
 Se        23.6843313129       13.6778548217       11.8089931900
 Se        26.8777160537       12.8950639695       11.8111080100
 Se        30.0658931140       12.1059217410       11.8162913156
 Se        33.2508859735       11.3074226339       11.8117409782
 Se        36.4462896166       10.5130961300       11.8051885769
 Se        39.6411703978        9.7260284991       11.8102109072
 Se         8.6555620099       14.4695891965       11.8120286002
 Se        11.8453368732       13.6719314466       11.8089911848
 Se        15.0404868490       12.8818598067       11.8121130304
 Se        18.2243326063       12.0941097072       11.8182420514
 Se        21.4025151513       11.3058141149       11.8121020428
 Se        24.5943271839       10.5225126901       11.8021535161
 Se        27.7919537950        9.7393137688       11.8046653159
 Se        30.9793991466        8.9469442978       11.8103081204
 Se        34.1670892357        8.1510087149       11.8100988741
 Se        37.3608053905        7.3617349213       11.8141684066
 Se         9.5666736175       11.3097245877       11.8103025170
 Se        12.7565107415       10.5216081239       11.8114145939
 Se        15.9469211117        9.7353200598       11.8182049196
 Se        19.1283772412        8.9423933736       11.8182206859
 Se        22.3156991954        8.1480218913       11.8063802563
 Se        25.5148694233        7.3603759494       11.8015140435
 Se        28.7060597863        6.5742049784       11.8082571698
 Se        31.8868052755        5.7856762052       11.8108233725
 Se        35.0750730190        5.0004516009       11.8095485587
 Se         7.2887850947        8.9387904737       11.8140592699
 Se        10.4708321678        8.1535693259       11.8080947646
 Se        13.6653376085        7.3721758143       11.8063717732
 Se        16.8566514540        6.5841414022       11.8120788070
 Se        20.0426389542        5.7862631827       11.8114076153
 Se        23.2362591849        4.9908310962       11.8080940634
 Se        26.4295053028        4.2025904353       11.8137647577
 Se        29.6091208361        3.4146941928       11.8169143640
 Se        32.7905159413        2.6284908733       11.8080104220
 Se        35.9863543357        1.8469371955       11.8024977711
 Se         5.0127881749        6.5734146373       11.8204006869
 Se         8.1915265731        5.7822809140       11.8137566055
 Se        11.3836009193        4.9954916462       11.8014940008
 Se        14.5824112308        4.2116149019       11.8021766502
 Se        17.7700019197        3.4220297767       11.8090027926
 Se        20.9550497297        2.6297129685       11.8102815722
 Se        24.1472948475        1.8424501776       11.8140152722
 Se        27.3337348593        1.0541311481       11.8203749617
 Se        30.5142280527        0.2601528235       11.8148181786
 Se         2.7349524973        4.2159799745       11.8148042773
 Se         5.9194031999        3.4225745754       11.8168719131
 Se         9.1071410820        2.6249303184       11.8082283814
 Se        12.3052808324        1.8340236427       11.8047203184
 Se        15.4953858396        1.0479078069       11.8111683502
 Se        18.6740668230        0.2607489169       11.8120574733
 Se         3.6478724850        1.0605048553       11.8079992958
 Se         6.8339203431        0.2645725520       11.8108079158
  W        35.5320705987        0.0005585161       20.1845771557
  W        47.8428793109       30.5362954646       20.1555847143
  W        50.6359727778       29.0821693496       20.1688843093
  W        42.3940655294       30.2850404125       20.1617921610
  W        45.1895381995       28.8313213307       20.1563009224
  W        47.9815612239       27.3821787882       20.1483395278
  W        36.9322209174       30.0502751349       20.1546477819
  W        39.7340277706       28.5953602510       20.1747589680
  W        42.5304029826       27.1331888120       20.1773321047
  W        45.3246962223       25.6789925556       20.1549559227
  W        48.1231177599       24.2307487828       20.1435110035
  W        31.4702150504       29.7999981884       20.1557714539
  W        34.2717735217       28.3524729146       20.1522914476
  W        37.0705177697       26.9044441793       20.1671380243
  W        39.8652890232       25.4437735035       20.1819605878
  W        42.6609248726       23.9824820097       20.1697694923
  W        45.4618348012       22.5334946359       20.1512748028
  W        26.0188500632       29.5617127406       20.1435160909
  W        28.8193133999       28.1056172677       20.1512937199
  W        31.6193482812       26.6508925519       20.1539269510
  W        34.4145109483       25.2029035194       20.1526728627
  W        37.2065615266       23.7506657426       20.1590762543
  W        40.0015422819       22.2903369063       20.1621163624
  W        42.8019813040       20.8359594855       20.1539198564
  W        45.6037773579       19.3905345298       20.1557611974
  W        20.5609252966       29.3122215557       20.1688774315
  W        23.3603762018       27.8634265083       20.1483318472
  W        26.1638613758       26.4141034298       20.1549553129
  W        28.9649578818       24.9554735791       20.1697683971
  W        31.7600888063       23.4984708293       20.1620942792
  W        34.5528394919       22.0488111724       20.1461451223
  W        37.3497327086       20.5965545567       20.1461532596
  W        40.1504315178       19.1393252034       20.1526727223
  W        42.9494232908       17.6880976610       20.1522930548
  W        17.8980684585       27.6200120429       20.1698840019
  W        20.6981943946       26.1662163869       20.1555763686
  W        23.5014394068       24.7208889796       20.1562898257
  W        26.3016362905       23.2670730525       20.1773317210
  W        29.0972417616       21.8037121060       20.1819518530
  W        31.8928812150       20.3477480194       20.1590526035
  W        34.6936164116       18.9004917251       20.1461354609
  W        37.4967689912       17.4474499617       20.1590581588
  W        40.2960415619       15.9883561525       20.1671337202
  W        43.0895331670       14.5352101387       20.1546636021
  W        15.2440115501       25.9272451265       20.1512313870
  W        18.0437808673       24.4697212573       20.1529562007
  W        20.8439907975       23.0206635980       20.1515160634
  W        23.6401983918       21.5730573768       20.1617990045
  W        26.4335040826       20.1142439224       20.1747732882
  W        29.2296494710       18.6530392783       20.1671365292
  W        32.0312707807       17.2036204688       20.1526557223
  W        34.8345901104       15.7570356551       20.1620935520
  W        37.6336583525       14.2983439884       20.1819532433
  W        40.4286189500       12.8362210892       20.1747570612
  W        15.3925914218       22.7761773541       20.1538959219
  W        18.1921777014       21.3192431768       20.1593557837
  W        20.9860962314       19.8689272777       20.1522328389
  W        23.7782145892       18.4183167100       20.1505659237
  W        26.5744370208       16.9603647253       20.1546841345
  W        29.3749619929       15.5052439082       20.1522992705
  W        32.1748083359       14.0589475175       20.1539269625
  W        34.9703082182       12.6078777881       20.1697790018
  W        37.7641537678       11.1455754595       20.1773396614
  W        40.5619111785        9.6877509710       20.1617862275
  W        12.7332710027       21.0856645879       20.1594581526
  W        15.5337313516       19.6267072165       20.1773114581
  W        18.3287751151       18.1667764368       20.1690213649
  W        21.1232187006       16.7161876729       20.1473636710
  W        23.9225240051       15.2661939254       20.1451206858
  W        26.7241095431       13.8092857785       20.1557860850
  W        29.5221351630       12.3552733970       20.1557820518
  W        32.3150079643       10.9067322539       20.1513038127
  W        35.1076437421        9.4527758936       20.1549775080
  W        37.9051934620        7.9936237905       20.1563092542
  W        12.8692524909       17.9380842975       20.1755403338
  W        15.6639310464       16.4746877199       20.1820760064
  W        18.4607094351       15.0174475555       20.1617320189
  W        21.2630388452       13.5708315375       20.1496607544
  W        24.0665291240       12.1192317556       20.1648847743
  W        26.8653091674       10.6584209714       20.1755481388
  W        29.6591852370        9.2023835583       20.1594783169
  W        32.4542210866        7.7534136359       20.1435239342
  W        35.2541888521        6.3002556373       20.1483485066
  W        38.0551064469        4.8432945977       20.1555968040
  W        10.2111174814       16.2403965601       20.1557753406
  W        13.0035003392       14.7838550205       20.1649009325
  W        15.8001520371       13.3234481224       20.1619938216
  W        18.6017999056       11.8732990335       20.1524154249
  W        21.4034624419       10.4274385715       20.1619797997
  W        24.2006383377        8.9698277873       20.1820759641
  W        26.9954256731        7.5065686680       20.1773192114
  W        29.7935099275        6.0540904270       20.1538959337
  W        32.5967276536        4.6072241856       20.1512222785
  W        35.3992595688        3.1514827271       20.1688872278
  W        10.3501770389       13.0856773308       20.1451213146
  W        13.1481271103       11.6301859423       20.1496866102
  W        15.9488634670       10.1742458213       20.1524302448
  W        18.7467912801        8.7262414574       20.1524247521
  W        21.5402113036        7.2763290930       20.1617470666
  W        24.3335519250        5.8159670009       20.1690332416
  W        27.1319866893        4.3580146269       20.1593537098
  W        29.9345916315        2.9113110205       20.1529495211
  W        32.7356818451        1.4623062858       20.1698792348
  W         7.6925295561       11.3846383224       20.1505420419
  W        10.4941347374        9.9364158431       20.1473624056
  W        13.2965004315        8.4800224380       20.1617483666
  W        16.0938063648        7.0228910605       20.1619904424
  W        18.8862400061        5.5727804319       20.1496769679
  W        21.6801164317        4.1212277372       20.1473759943