 DBCSR| CPU Multiplication driver                                           XSMM (U)
 DBCSR| Multrec recursion limit                                              512 (U)
 DBCSR| Multiplication stack size                                           1000 (D)
 DBCSR| Maximum elements for images                                    UNLIMITED (U)
 DBCSR| Multiplicative factor virtual images                                   1 (U)
 DBCSR| Use multiplication densification                                       T (D)
 DBCSR| Multiplication size stacks                                             3 (U)
 DBCSR| Use memory pool for CPU allocation                                     F (U)
 DBCSR| Number of 3D layers                                               SINGLE (U)
 DBCSR| Use MPI memory allocation                                              F (U)
 DBCSR| Use RMA algorithm                                                      F (U)
 DBCSR| Use Communication thread                                               T (U)
 DBCSR| Communication thread load                                             75 (D)
 DBCSR| MPI: My process id                                                     0
 DBCSR| MPI: Number of processes                                            1600
 DBCSR| OMP: Current number of threads                                         4
 DBCSR| OMP: Max number of threads                                             4
 DBCSR| Split modifier for TAS multiplication algorithm                  1.0E+00 (U)


  **** **** ******  **  PROGRAM STARTED AT               2023-06-02 22:43:33.367
 ***** ** ***  *** **   PROGRAM STARTED ON                              n2cn0192
 **    ****   ******    PROGRAM STARTED BY                              eprop2d1
 ***** **    ** ** **   PROGRAM PROCESS ID                               2571765
  **** **  *******  **  PROGRAM STARTED IN /scratch/hpc-prf-eprop2d/eprop2d1_Jan
                                           /02_MoS2_MoSe2_WS2_WSe2/4_WSe2/11x11_
                                           PBE/4_reg_RI_1e-2_TZVP_standard_RI

 CP2K| version string:                 CP2K version 2023.1 (Development Version)
 CP2K| source code revision number:                                  git:a5f008f
 CP2K| cp2kflags: omp libint fftw3 libxc elpa parallel scalapack cosma xsmm plum
 CP2K|            ed2 spglib sirius libvori libbqb libvdwxc
 CP2K| is freely available from                            https://www.cp2k.org/
 CP2K| Program compiled at                         Tue Apr 11 10:47:55 CEST 2023
 CP2K| Program compiled on                                              n2login5
 CP2K| Program compiled for                                                local
 CP2K| Data directory path    /opt/software/pc2/EB-SW/software/CP2K/2023.1-foss-
 CP2K| Input file name                                                    GW.inp

 GLOBAL| Force Environment number                                              1
 GLOBAL| Basis set file name                                        BASIS_MOLOPT
 GLOBAL| Potential file name                                      GTH_POTENTIALS
 GLOBAL| MM Potential file name                                     MM_POTENTIAL
 GLOBAL| Coordinate file name                                      __STD_INPUT__
 GLOBAL| Method name                                                        CP2K
 GLOBAL| Project name                                                       MoS2
 GLOBAL| Run type                                                         ENERGY
 GLOBAL| FFT library                                                       FFTW3
 GLOBAL| Diagonalization library                                            ELPA
 GLOBAL| DGEMM library                                                      BLAS
 GLOBAL| Minimum number of eigenvectors for ELPA usage                        16
 GLOBAL| Orthonormality check for eigenvectors                          DISABLED
 GLOBAL| Matrix multiplication library                                     COSMA
 GLOBAL| All-to-all communication in single precision                          F
 GLOBAL| FFTs using library dependent lengths                                  F
 GLOBAL| Grid backend                                                       AUTO
 GLOBAL| Global print level                                               MEDIUM
 GLOBAL| MPI I/O enabled                                                       T
 GLOBAL| Total number of message passing processes                          1600
 GLOBAL| Number of threads for this process                                    4
 GLOBAL| This output is from process                                           0
 GLOBAL| Stack size for threads created by OpenMP (OMP_STACKSIZE)        default
 GLOBAL| CPU model name                          AMD EPYC 7763 64-Core Processor
 GLOBAL| CPUID                                                              1002
 GLOBAL| Compiled for CPUID                                                    0

 *** HINT in environment.F:882 :: The compiler target flags (generic) used ***
 *** to build this binary cannot exploit all extensions of this CPU model  ***
 *** (x86_avx2). Consider compiler target flags as part of FCFLAGS and     ***
 *** CFLAGS (ARCH file).                                                   ***


 MEMORY| system memory details [Kb]
 MEMORY|                        rank 0           min           max       average
 MEMORY| MemTotal            263914148     263914144     263914156     263914151
 MEMORY| MemFree             241909460     208823560     251954520     241722071
 MEMORY| Buffers                101788         34120        353372        231468
 MEMORY| Cached                5106928       3840080      31453116       7210851
 MEMORY| Slab                  9125784       1577020      15235496       7439789
 MEMORY| SReclaimable           279112        210464        581948        305996
 MEMORY| MemLikelyFree       247397288     241011908     256147628     249470387


 *** Fundamental physical constants (SI units) ***

 *** Literature: B. J. Mohr and B. N. Taylor,
 ***             CODATA recommended values of the fundamental physical
 ***             constants: 2006, Web Version 5.1
 ***             http://physics.nist.gov/constants

 Speed of light in vacuum [m/s]                             2.99792458000000E+08
 Magnetic constant or permeability of vacuum [N/A**2]       1.25663706143592E-06
 Electric constant or permittivity of vacuum [F/m]          8.85418781762039E-12
 Planck constant (h) [J*s]                                  6.62606896000000E-34
 Planck constant (h-bar) [J*s]                              1.05457162825177E-34
 Elementary charge [C]                                      1.60217648700000E-19
 Electron mass [kg]                                         9.10938215000000E-31
 Electron g factor [ ]                                     -2.00231930436220E+00
 Proton mass [kg]                                           1.67262163700000E-27
 Fine-structure constant                                    7.29735253760000E-03
 Rydberg constant [1/m]                                     1.09737315685270E+07
 Avogadro constant [1/mol]                                  6.02214179000000E+23
 Boltzmann constant [J/K]                                   1.38065040000000E-23
 Atomic mass unit [kg]                                      1.66053878200000E-27
 Bohr radius [m]                                            5.29177208590000E-11

 *** Conversion factors ***

 [u] -> [a.u.]                                              1.82288848426455E+03
 [Angstrom] -> [Bohr] = [a.u.]                              1.88972613288564E+00
 [a.u.] = [Bohr] -> [Angstrom]                              5.29177208590000E-01
 [a.u.] -> [s]                                              2.41888432650478E-17
 [a.u.] -> [fs]                                             2.41888432650478E-02
 [a.u.] -> [J]                                              4.35974393937059E-18
 [a.u.] -> [N]                                              8.23872205491840E-08
 [a.u.] -> [K]                                              3.15774647902944E+05
 [a.u.] -> [kJ/mol]                                         2.62549961709828E+03
 [a.u.] -> [kcal/mol]                                       6.27509468713739E+02
 [a.u.] -> [Pa]                                             2.94210107994716E+13
 [a.u.] -> [bar]                                            2.94210107994716E+08
 [a.u.] -> [atm]                                            2.90362800883016E+08
 [a.u.] -> [eV]                                             2.72113838565563E+01
 [a.u.] -> [Hz]                                             6.57968392072181E+15
 [a.u.] -> [1/cm] (wave numbers)                            2.19474631370540E+05
 [a.u./Bohr**2] -> [1/cm]                                   5.14048714338585E+03
 

 CELL_TOP| Volume [angstrom^3]:                                     17314.970895
 CELL_TOP| Vector a [angstrom    36.509     0.000     0.000   |a| =    36.509000
 CELL_TOP| Vector b [angstrom   -18.254    31.618     0.000   |b| =    36.509000
 CELL_TOP| Vector c [angstrom     0.000     0.000    15.000   |c| =    15.000000
 CELL_TOP| Angle (b,c), alpha [degree]:                                90.000000
 CELL_TOP| Angle (a,c), beta  [degree]:                                90.000000
 CELL_TOP| Angle (a,b), gamma [degree]:                               120.000000
 CELL_TOP| Numerically orthorhombic:                                          NO
 CELL_TOP| Periodicity                                                        XY

 CELL_UC| Volume [angstrom^3]:                                        143.098933
 CELL_UC| Vector a [angstrom]     3.319     0.000     0.000   |a| =     3.319000
 CELL_UC| Vector b [angstrom]    -1.659     2.874     0.000   |b| =     3.319000
 CELL_UC| Vector c [angstrom]     0.000     0.000    15.000   |c| =    15.000000
 CELL_UC| Angle (b,c), alpha [degree]:                                 90.000000
 CELL_UC| Angle (a,c), beta  [degree]:                                 90.000000
 CELL_UC| Angle (a,b), gamma [degree]:                                120.000000
 CELL_UC| Numerically orthorhombic:                                           NO
 CELL_UC| Periodicity                                                         XY

 GENERATE|  Preliminary Number of Bonds generated:                             0
 GENERATE|  Achieved consistency in connectivity generation.

 CELL| Volume [angstrom^3]:                                         17314.970895
 CELL| Vector a [angstrom]:      36.509     0.000     0.000   |a| =    36.509000
 CELL| Vector b [angstrom]:     -18.254    31.618     0.000   |b| =    36.509000
 CELL| Vector c [angstrom]:       0.000     0.000    15.000   |c| =    15.000000
 CELL| Angle (b,c), alpha [degree]:                                    90.000000
 CELL| Angle (a,c), beta  [degree]:                                    90.000000
 CELL| Angle (a,b), gamma [degree]:                                   120.000000
 CELL| Numerically orthorhombic:                                              NO
 CELL| Periodicity                                                            XY

 CELL_REF| Volume [angstrom^3]:                                     17314.970895
 CELL_REF| Vector a [angstrom    36.509     0.000     0.000   |a| =    36.509000
 CELL_REF| Vector b [angstrom   -18.254    31.618     0.000   |b| =    36.509000
 CELL_REF| Vector c [angstrom     0.000     0.000    15.000   |c| =    15.000000
 CELL_REF| Angle (b,c), alpha [degree]:                                90.000000
 CELL_REF| Angle (a,c), beta  [degree]:                                90.000000
 CELL_REF| Angle (a,b), gamma [degree]:                               120.000000
 CELL_REF| Numerically orthorhombic:                                          NO
 CELL_REF| Periodicity                                                        XY

 *******************************************************************************
 *******************************************************************************
 **                                                                           **
 **     #####                         ##              ##                      **
 **    ##   ##            ##          ##              ##                      **
 **   ##     ##                       ##            ######                    **
 **   ##     ##  ##   ##  ##   #####  ##  ##   ####   ##    #####    #####    **
 **   ##     ##  ##   ##  ##  ##      ## ##   ##      ##   ##   ##  ##   ##   **
 **   ##  ## ##  ##   ##  ##  ##      ####     ###    ##   ######   ######    **
 **    ##  ###   ##   ##  ##  ##      ## ##      ##   ##   ##       ##        **
 **     #######   #####   ##   #####  ##  ##  ####    ##    #####   ##        **
 **           ##                                                    ##        **
 **                                                                           **
 **                                                ... make the atoms dance   **
 **                                                                           **
 **            Copyright (C) by CP2K developers group (2000-2023)             **
 **                      J. Chem. Phys. 152, 194103 (2020)                    **
 **                                                                           **
 *******************************************************************************

 DFT| Spin restricted Kohn-Sham (RKS) calculation                            RKS
 DFT| Multiplicity                                                             1
 DFT| Number of spin states                                                    1
 DFT| Charge                                                                   0
 DFT| Self-interaction correction (SIC)                                       NO
 DFT| Cutoffs: density                                              1.000000E-10
 DFT|          gradient                                             1.000000E-10
 DFT|          tau                                                  1.000000E-10
 DFT|          cutoff_smoothing_range                               0.000000E+00
 DFT| XC density smoothing                                                  NONE
 DFT| XC derivatives                                                          PW

 FUNCTIONAL| PADE:
 FUNCTIONAL| S. Goedecker, M. Teter and J. Hutter, Phys. Rev. B 54, 1703 (1996) 


 QS| Method:                                                                 GPW
 QS| Density plane wave grid type                        NON-SPHERICAL FULLSPACE
 QS| Number of grid levels:                                                    4
 QS| Density cutoff [a.u.]:                                                250.0
 QS| Multi grid cutoff [a.u.]: 1) grid level                               250.0
 QS|                           2) grid level                                83.3
 QS|                           3) grid level                                27.8
 QS|                           4) grid level                                 9.3
 QS| Grid level progression factor:                                          3.0
 QS| Relative density cutoff [a.u.]:                                        50.0
 QS| Interaction thresholds: eps_pgf_orb:                                1.0E-40
 QS|                         eps_filter_matrix:                          0.0E+00
 QS|                         eps_core_charge:                            1.0E-42
 QS|                         eps_rho_gspace:                             1.0E-40
 QS|                         eps_rho_rspace:                             1.0E-40
 QS|                         eps_gvg_rspace:                             1.0E-20
 QS|                         eps_ppl:                                    1.0E-02
 QS|                         eps_ppnl:                                   1.0E-22


 ATOMIC KIND INFORMATION

  1. Atomic kind: W                                     Number of atoms:     121

     Orbital Basis Set                                        TZVP-MOLOPT-SR-GTH

       Number of orbital shell sets:                                           1
       Number of orbital shells:                                              11
       Number of primitive Cartesian functions:                                6
       Number of Cartesian basis functions:                                   41
       Number of spherical basis functions:                                   35
       Norm type:                                                              2

       Normalised Cartesian orbitals:

                        Set   Shell   Orbital            Exponent    Coefficient

                          1       1    2s                3.103254       0.430480
                                                         2.893835       0.495799
                                                         1.106151      -0.749253
                                                         0.501100      -0.216095
                                                         0.214447       0.032697
                                                         0.074663      -0.009674

                          1       2    3s                3.103254      -0.838448
                                                         2.893835       0.659302
                                                         1.106151       0.041187
                                                         0.501100      -0.061336
                                                         0.214447       0.079342
                                                         0.074663       0.078749

                          1       3    4s                3.103254       1.710384
                                                         2.893835      -1.029561
                                                         1.106151      -0.302972
                                                         0.501100       0.071480
                                                         0.214447      -0.305493
                                                         0.074663       0.172896

                          1       4    5s                3.103254       1.231280
                                                         2.893835      -1.395772
                                                         1.106151       0.316405
                                                         0.501100      -0.291407
                                                         0.214447       0.253777
                                                         0.074663       0.028869

                          1       5    3px               3.103254       6.595006
                                                         2.893835      -5.436829
                                                         1.106151      -0.973670
                                                         0.501100      -0.261913
                                                         0.214447      -0.013952
                                                         0.074663       0.001100
                          1       5    3py               3.103254       6.595006
                                                         2.893835      -5.436829
                                                         1.106151      -0.973670
                                                         0.501100      -0.261913
                                                         0.214447      -0.013952
                                                         0.074663       0.001100
                          1       5    3pz               3.103254       6.595006
                                                         2.893835      -5.436829
                                                         1.106151      -0.973670
                                                         0.501100      -0.261913
                                                         0.214447      -0.013952
                                                         0.074663       0.001100

                          1       6    4px               3.103254      -0.229699
                                                         2.893835       0.340023
                                                         1.106151      -0.266568
                                                         0.501100      -0.017427
                                                         0.214447       0.062174
                                                         0.074663       0.044896
                          1       6    4py               3.103254      -0.229699
                                                         2.893835       0.340023
                                                         1.106151      -0.266568
                                                         0.501100      -0.017427
                                                         0.214447       0.062174
                                                         0.074663       0.044896
                          1       6    4pz               3.103254      -0.229699
                                                         2.893835       0.340023
                                                         1.106151      -0.266568
                                                         0.501100      -0.017427
                                                         0.214447       0.062174
                                                         0.074663       0.044896

                          1       7    5px               3.103254       1.468072
                                                         2.893835      -1.128056
                                                         1.106151       1.371755
                                                         0.501100       0.145890
                                                         0.214447      -0.334609
                                                         0.074663       0.044858
                          1       7    5py               3.103254       1.468072
                                                         2.893835      -1.128056
                                                         1.106151       1.371755
                                                         0.501100       0.145890
                                                         0.214447      -0.334609
                                                         0.074663       0.044858
                          1       7    5pz               3.103254       1.468072
                                                         2.893835      -1.128056
                                                         1.106151       1.371755
                                                         0.501100       0.145890
                                                         0.214447      -0.334609
                                                         0.074663       0.044858

                          1       8    4dx2              3.103254      -0.073430
                                                         2.893835       0.214195
                                                         1.106151       0.645387
                                                         0.501100       0.199794
                                                         0.214447       0.032379
                                                         0.074663       0.003876
                          1       8    4dxy              3.103254      -0.127184
                                                         2.893835       0.370997
                                                         1.106151       1.117844
                                                         0.501100       0.346053
                                                         0.214447       0.056082
                                                         0.074663       0.006714
                          1       8    4dxz              3.103254      -0.127184
                                                         2.893835       0.370997
                                                         1.106151       1.117844
                                                         0.501100       0.346053
                                                         0.214447       0.056082
                                                         0.074663       0.006714
                          1       8    4dy2              3.103254      -0.073430
                                                         2.893835       0.214195
                                                         1.106151       0.645387
                                                         0.501100       0.199794
                                                         0.214447       0.032379
                                                         0.074663       0.003876
                          1       8    4dyz              3.103254      -0.127184
                                                         2.893835       0.370997
                                                         1.106151       1.117844
                                                         0.501100       0.346053
                                                         0.214447       0.056082
                                                         0.074663       0.006714
                          1       8    4dz2              3.103254      -0.073430
                                                         2.893835       0.214195
                                                         1.106151       0.645387
                                                         0.501100       0.199794
                                                         0.214447       0.032379
                                                         0.074663       0.003876

                          1       9    5dx2              3.103254       0.131236
                                                         2.893835      -0.269688
                                                         1.106151      -0.639375
                                                         0.501100      -0.218460
                                                         0.214447       0.054987
                                                         0.074663       0.011491
                          1       9    5dxy              3.103254       0.227308
                                                         2.893835      -0.467113
                                                         1.106151      -1.107431
                                                         0.501100      -0.378383
                                                         0.214447       0.095240
                                                         0.074663       0.019903
                          1       9    5dxz              3.103254       0.227308
                                                         2.893835      -0.467113
                                                         1.106151      -1.107431
                                                         0.501100      -0.378383
                                                         0.214447       0.095240
                                                         0.074663       0.019903
                          1       9    5dy2              3.103254       0.131236
                                                         2.893835      -0.269688
                                                         1.106151      -0.639375
                                                         0.501100      -0.218460
                                                         0.214447       0.054987
                                                         0.074663       0.011491
                          1       9    5dyz              3.103254       0.227308
                                                         2.893835      -0.467113
                                                         1.106151      -1.107431
                                                         0.501100      -0.378383
                                                         0.214447       0.095240
                                                         0.074663       0.019903
                          1       9    5dz2              3.103254       0.131236
                                                         2.893835      -0.269688
                                                         1.106151      -0.639375
                                                         0.501100      -0.218460
                                                         0.214447       0.054987
                                                         0.074663       0.011491

                          1      10    6dx2              3.103254      11.532441
                                                         2.893835     -11.449410
                                                         1.106151       0.939358
                                                         0.501100      -0.005417
                                                         0.214447      -0.145639
                                                         0.074663       0.020374
                          1      10    6dxy              3.103254      19.974774
                                                         2.893835     -19.830960
                                                         1.106151       1.627016
                                                         0.501100      -0.009382
                                                         0.214447      -0.252255
                                                         0.074663       0.035289
                          1      10    6dxz              3.103254      19.974774
                                                         2.893835     -19.830960
                                                         1.106151       1.627016
                                                         0.501100      -0.009382
                                                         0.214447      -0.252255
                                                         0.074663       0.035289
                          1      10    6dy2              3.103254      11.532441
                                                         2.893835     -11.449410
                                                         1.106151       0.939358
                                                         0.501100      -0.005417
                                                         0.214447      -0.145639
                                                         0.074663       0.020374
                          1      10    6dyz              3.103254      19.974774
                                                         2.893835     -19.830960
                                                         1.106151       1.627016
                                                         0.501100      -0.009382
                                                         0.214447      -0.252255
                                                         0.074663       0.035289
                          1      10    6dz2              3.103254      11.532441
                                                         2.893835     -11.449410
                                                         1.106151       0.939358
                                                         0.501100      -0.005417
                                                         0.214447      -0.145639
                                                         0.074663       0.020374

                          1      11    5fx3              3.103254      -2.194270
                                                         2.893835       2.425274
                                                         1.106151      -0.369945
                                                         0.501100      -0.176940
                                                         0.214447      -0.017061
                                                         0.074663      -0.000241
                          1      11    5fx2y             3.103254      -4.906538
                                                         2.893835       5.423078
                                                         1.106151      -0.827223
                                                         0.501100      -0.395650
                                                         0.214447      -0.038149
                                                         0.074663      -0.000540
                          1      11    5fx2z             3.103254      -4.906538
                                                         2.893835       5.423078
                                                         1.106151      -0.827223
                                                         0.501100      -0.395650
                                                         0.214447      -0.038149
                                                         0.074663      -0.000540
                          1      11    5fxy2             3.103254      -4.906538
                                                         2.893835       5.423078
                                                         1.106151      -0.827223
                                                         0.501100      -0.395650
                                                         0.214447      -0.038149
                                                         0.074663      -0.000540
                          1      11    5fxyz             3.103254      -8.498372
                                                         2.893835       9.393047
                                                         1.106151      -1.432792
                                                         0.501100      -0.685285
                                                         0.214447      -0.066076
                                                         0.074663      -0.000935
                          1      11    5fxz2             3.103254      -4.906538
                                                         2.893835       5.423078
                                                         1.106151      -0.827223
                                                         0.501100      -0.395650
                                                         0.214447      -0.038149
                                                         0.074663      -0.000540
                          1      11    5fy3              3.103254      -2.194270
                                                         2.893835       2.425274
                                                         1.106151      -0.369945
                                                         0.501100      -0.176940
                                                         0.214447      -0.017061
                                                         0.074663      -0.000241
                          1      11    5fy2z             3.103254      -4.906538
                                                         2.893835       5.423078
                                                         1.106151      -0.827223
                                                         0.501100      -0.395650
                                                         0.214447      -0.038149
                                                         0.074663      -0.000540
                          1      11    5fyz2             3.103254      -4.906538
                                                         2.893835       5.423078
                                                         1.106151      -0.827223
                                                         0.501100      -0.395650
                                                         0.214447      -0.038149
                                                         0.074663      -0.000540
                          1      11    5fz3              3.103254      -2.194270
                                                         2.893835       2.425274
                                                         1.106151      -0.369945
                                                         0.501100      -0.176940
                                                         0.214447      -0.017061
                                                         0.074663      -0.000241

     RI Auxiliary Basis Set                                 def2-SVP-RIFIT-mod-3

       Number of orbital shell sets:                                          16
       Number of orbital shells:                                              16
       Number of primitive Cartesian functions:                               16
       Number of Cartesian basis functions:                                   88
       Number of spherical basis functions:                                   66
       Norm type:                                                              2

       Normalised Cartesian orbitals:

                        Set   Shell   Orbital            Exponent    Coefficient

                          1       1    1s                0.238675       0.243369

                          2       1    1fx3              0.253216       0.066959
                          2       1    1fx2y             0.253216       0.149725
                          2       1    1fx2z             0.253216       0.149725
                          2       1    1fxy2             0.253216       0.149725
                          2       1    1fxyz             0.253216       0.259331
                          2       1    1fxz2             0.253216       0.149725
                          2       1    1fy3              0.253216       0.066959
                          2       1    1fy2z             0.253216       0.149725
                          2       1    1fyz2             0.253216       0.149725
                          2       1    1fz3              0.253216       0.066959

                          3       1    1px               0.269126       0.276302
                          3       1    1py               0.269126       0.276302
                          3       1    1pz               0.269126       0.276302

                          4       1    1dx2              0.304026       0.204882
                          4       1    1dxy              0.304026       0.354866
                          4       1    1dxz              0.304026       0.354866
                          4       1    1dy2              0.304026       0.204882
                          4       1    1dyz              0.304026       0.354866
                          4       1    1dz2              0.304026       0.204882

                          5       1    1gx4              0.365033       0.069638
                          5       1    1gx3y             0.365033       0.184246
                          5       1    1gx3z             0.365033       0.184246
                          5       1    1gx2y2            0.365033       0.237860
                          5       1    1gx2yz            0.365033       0.411986
                          5       1    1gx2z2            0.365033       0.237860
                          5       1    1gxy3             0.365033       0.184246
                          5       1    1gxy2z            0.365033       0.411986
                          5       1    1gxyz2            0.365033       0.411986
                          5       1    1gxz3             0.365033       0.184246
                          5       1    1gy4              0.365033       0.069638
                          5       1    1gy3z             0.365033       0.184246
                          5       1    1gy2z2            0.365033       0.237860
                          5       1    1gyz3             0.365033       0.184246
                          5       1    1gz4              0.365033       0.069638

                          6       1    1s                0.424638       0.374908

                          7       1    1s                0.648984       0.515330

                          8       1    1dx2              0.719090       0.924230
                          8       1    1dxy              0.719090       1.600814
                          8       1    1dxz              0.719090       1.600814
                          8       1    1dy2              0.719090       0.924230
                          8       1    1dyz              0.719090       1.600814
                          8       1    1dz2              0.719090       0.924230

                          9       1    1gx4              0.914481       0.870294
                          9       1    1gx3y             0.914481       2.302581
                          9       1    1gx3z             0.914481       2.302581
                          9       1    1gx2y2            0.914481       2.972619
                          9       1    1gx2yz            0.914481       5.148727
                          9       1    1gx2z2            0.914481       2.972619
                          9       1    1gxy3             0.914481       2.302581
                          9       1    1gxy2z            0.914481       5.148727
                          9       1    1gxyz2            0.914481       5.148727
                          9       1    1gxz3             0.914481       2.302581
                          9       1    1gy4              0.914481       0.870294
                          9       1    1gy3z             0.914481       2.302581
                          9       1    1gy2z2            0.914481       2.972619
                          9       1    1gyz3             0.914481       2.302581
                          9       1    1gz4              0.914481       0.870294

                         10       1    1px               0.967490       1.367723
                         10       1    1py               0.967490       1.367723
                         10       1    1pz               0.967490       1.367723

                         11       1    1dx2              1.179750       2.198072
                         11       1    1dxy              1.179750       3.807173
                         11       1    1dxz              1.179750       3.807173
                         11       1    1dy2              1.179750       2.198072
                         11       1    1dyz              1.179750       3.807173
                         11       1    1dz2              1.179750       2.198072

                         12       1    1fx3              1.281070       2.570357
                         12       1    1fx2y             1.281070       5.747492
                         12       1    1fx2z             1.281070       5.747492
                         12       1    1fxy2             1.281070       5.747492
                         12       1    1fxyz             1.281070       9.954948
                         12       1    1fxz2             1.281070       5.747492
                         12       1    1fy3              1.281070       2.570357
                         12       1    1fy2z             1.281070       5.747492
                         12       1    1fyz2             1.281070       5.747492
                         12       1    1fz3              1.281070       2.570357

                         13       1    1s                1.466370       0.949714

                         14       1    1px               1.939290       3.262072
                         14       1    1py               1.939290       3.262072
                         14       1    1pz               1.939290       3.262072

                         15       1    1s                2.101910       1.244144

                         16       1    1dx2              2.484170       8.090526
                         16       1    1dxy              2.484170      14.013202
                         16       1    1dxz              2.484170      14.013202
                         16       1    1dy2              2.484170       8.090526
                         16       1    1dyz              2.484170      14.013202
                         16       1    1dz2              2.484170       8.090526

       Atomic covalent radius [Angstrom]:                                  1.300

       Atomic van der Waals radius [Angstrom]:                             1.670

     GTH Potential information for                                  GTH-PADE-q14

       Description:                       Goedecker-Teter-Hutter pseudopotential
                                           Goedecker et al., PRB 54, 1703 (1996)
                                          Hartwigsen et al., PRB 58, 3641 (1998)
                                                      Krack, TCA 114, 145 (2005)

       Gaussian exponent of the core charge distribution:               1.714678
       Electronic configuration (s p d ...):                           4   6   4

       Parameters of the local part of the GTH pseudopotential:

                          rloc        C1          C2          C3          C4
                        0.540000    4.800251    0.901544

       Parameters of the non-local part of the GTH pseudopotential:

                   l      r(l)      h(i,j,l)

                   0    0.418570    2.692204    2.332557    0.297239
                                    2.332557   -6.022638   -0.767467
                                    0.297239   -0.767467    1.218316
                   1    0.449555   -0.702084    1.036024
                                    1.036024   -2.451680
                   2    0.399602    1.177436    2.448917
                                    2.448917   -5.553621

  2. Atomic kind: Se                                    Number of atoms:     242

     Orbital Basis Set                                        TZVP-MOLOPT-SR-GTH

       Number of orbital shell sets:                                           1
       Number of orbital shells:                                               7
       Number of primitive Cartesian functions:                                4
       Number of Cartesian basis functions:                                   18
       Number of spherical basis functions:                                   17
       Norm type:                                                              2

       Normalised Cartesian orbitals:

                        Set   Shell   Orbital            Exponent    Coefficient

                          1       1    2s                1.465689       0.302678
                                                         1.029752      -0.073168
                                                         0.303575      -0.202711
                                                         0.107173      -0.059713

                          1       2    3s                1.465689      -0.155491
                                                         1.029752       0.241663
                                                         0.303575      -0.363851
                                                         0.107173       0.233571

                          1       3    4s                1.465689       1.273873
                                                         1.029752      -0.825574
                                                         0.303575       0.111847
                                                         0.107173       0.081995

                          1       4    3px               1.465689       0.612976
                                                         1.029752      -0.484874
                                                         0.303575      -0.234718
                                                         0.107173      -0.021524
                          1       4    3py               1.465689       0.612976
                                                         1.029752      -0.484874
                                                         0.303575      -0.234718
                                                         0.107173      -0.021524
                          1       4    3pz               1.465689       0.612976
                                                         1.029752      -0.484874
                                                         0.303575      -0.234718
                                                         0.107173      -0.021524

                          1       5    4px               1.465689       0.383325
                                                         1.029752      -0.329453
                                                         0.303575      -0.075164
                                                         0.107173       0.102417
                          1       5    4py               1.465689       0.383325
                                                         1.029752      -0.329453
                                                         0.303575      -0.075164
                                                         0.107173       0.102417
                          1       5    4pz               1.465689       0.383325
                                                         1.029752      -0.329453
                                                         0.303575      -0.075164
                                                         0.107173       0.102417

                          1       6    5px               1.465689       3.760520
                                                         1.029752      -2.704359
                                                         0.303575       0.485527
                                                         0.107173      -0.024362
                          1       6    5py               1.465689       3.760520
                                                         1.029752      -2.704359
                                                         0.303575       0.485527
                                                         0.107173      -0.024362
                          1       6    5pz               1.465689       3.760520
                                                         1.029752      -2.704359
                                                         0.303575       0.485527
                                                         0.107173      -0.024362

                          1       7    4dx2              1.465689       0.513111
                                                         1.029752      -0.664167
                                                         0.303575      -0.134856
                                                         0.107173      -0.008700
                          1       7    4dxy              1.465689       0.888735
                                                         1.029752      -1.150371
                                                         0.303575      -0.233577
                                                         0.107173      -0.015069
                          1       7    4dxz              1.465689       0.888735
                                                         1.029752      -1.150371
                                                         0.303575      -0.233577
                                                         0.107173      -0.015069
                          1       7    4dy2              1.465689       0.513111
                                                         1.029752      -0.664167
                                                         0.303575      -0.134856
                                                         0.107173      -0.008700
                          1       7    4dyz              1.465689       0.888735
                                                         1.029752      -1.150371
                                                         0.303575      -0.233577
                                                         0.107173      -0.015069
                          1       7    4dz2              1.465689       0.513111
                                                         1.029752      -0.664167
                                                         0.303575      -0.134856
                                                         0.107173      -0.008700

     RI Auxiliary Basis Set                                 def2-SVP-RIFIT-mod-3

       Number of orbital shell sets:                                          12
       Number of orbital shells:                                              12
       Number of primitive Cartesian functions:                               12
       Number of Cartesian basis functions:                                   44
       Number of spherical basis functions:                                   38
       Norm type:                                                              2

       Normalised Cartesian orbitals:

                        Set   Shell   Orbital            Exponent    Coefficient

                          1       1    1s                0.228146       0.235272

                          2       1    1dx2              0.255873       0.151514
                          2       1    1dxy              0.255873       0.262430
                          2       1    1dxz              0.255873       0.262430
                          2       1    1dy2              0.255873       0.151514
                          2       1    1dyz              0.255873       0.262430
                          2       1    1dz2              0.255873       0.151514

                          3       1    1px               0.271607       0.279490
                          3       1    1py               0.271607       0.279490
                          3       1    1pz               0.271607       0.279490

                          4       1    1s                0.368618       0.337165

                          5       1    1dx2              0.492940       0.477308
                          5       1    1dxy              0.492940       0.826723
                          5       1    1dxz              0.492940       0.826723
                          5       1    1dy2              0.492940       0.477308
                          5       1    1dyz              0.492940       0.826723
                          5       1    1dz2              0.492940       0.477308

                          6       1    1px               0.522961       0.633908
                          6       1    1py               0.522961       0.633908
                          6       1    1pz               0.522961       0.633908

                          7       1    1s                0.572587       0.469128

                          8       1    1fx3              0.711060       0.683508
                          8       1    1fx2y             0.711060       1.528371
                          8       1    1fx2z             0.711060       1.528371
                          8       1    1fxy2             0.711060       1.528371
                          8       1    1fxyz             0.711060       2.647216
                          8       1    1fxz2             0.711060       1.528371
                          8       1    1fy3              0.711060       0.683508
                          8       1    1fy2z             0.711060       1.528371
                          8       1    1fyz2             0.711060       1.528371
                          8       1    1fz3              0.711060       0.683508

                          9       1    1px               1.002555       1.429965
                          9       1    1py               1.002555       1.429965
                          9       1    1pz               1.002555       1.429965

                         10       1    1dx2              1.339632       2.745579
                         10       1    1dxy              1.339632       4.755483
                         10       1    1dxz              1.339632       4.755483
                         10       1    1dy2              1.339632       2.745579
                         10       1    1dyz              1.339632       4.755483
                         10       1    1dz2              1.339632       2.745579

                         11       1    1px               1.705131       2.777392
                         11       1    1py               1.705131       2.777392
                         11       1    1pz               1.705131       2.777392

                         12       1    1s                2.077977       1.233504

       Atomic covalent radius [Angstrom]:                                  1.160

       Atomic van der Waals radius [Angstrom]:                             1.900

     GTH Potential information for                                   GTH-PADE-q6

       Description:                       Goedecker-Teter-Hutter pseudopotential
                                           Goedecker et al., PRB 54, 1703 (1996)
                                          Hartwigsen et al., PRB 58, 3641 (1998)
                                                      Krack, TCA 114, 145 (2005)

       Gaussian exponent of the core charge distribution:               1.922338
       Electronic configuration (s p d ...):                               2   4

       Parameters of the local part of the GTH pseudopotential:

                          rloc        C1          C2          C3          C4
                        0.510000

       Parameters of the non-local part of the GTH pseudopotential:

                   l      r(l)      h(i,j,l)

                   0    0.432531    5.145131   -0.794740   -0.334051
                                   -0.794740    2.052009    0.862517
                                   -0.334051    0.862517   -1.369203
                   1    0.472473    2.858806    0.249604
                                    0.249604   -0.590670
                   2    0.613420    0.434829


 MOLECULE KIND INFORMATION


 All atoms are their own molecule, skipping detailed information


 TOTAL NUMBERS AND MAXIMUM NUMBERS

  Total number of            - Atomic kinds:                                   2
                             - Atoms:                                        363
                             - Shell sets:                                   363
                             - Shells:                                      3025
                             - Primitive Cartesian functions:               1694
                             - Cartesian basis functions:                   9317
                             - Spherical basis functions:                   8349

  Maximum angular momentum of- Orbital basis functions:                        3
                             - Local part of the GTH pseudopotential:          2
                             - Non-local part of the GTH pseudopotential:      4


 MODULE QUICKSTEP: ATOMIC COORDINATES IN ANGSTROM

   Atom Kind Element         X             Y             Z       Z(eff)     Mass
      1    1 W    74      0.000000      0.000000      2.179276  14.0000 183.8400
      2    2 Se   34      1.659503      0.958115      3.858553   6.0000  78.9600
      3    2 Se   34      1.659503      0.958115      0.500000   6.0000  78.9600
      4    1 W    74      3.319000      0.000000      2.179276  14.0000 183.8400
      5    2 Se   34      4.978503      0.958115      3.858553   6.0000  78.9600
      6    2 Se   34      4.978503      0.958115      0.500000   6.0000  78.9600
      7    1 W    74      6.638000      0.000000      2.179276  14.0000 183.8400
      8    2 Se   34      8.297503      0.958115      3.858553   6.0000  78.9600
      9    2 Se   34      8.297503      0.958115      0.500000   6.0000  78.9600
     10    1 W    74      9.957000      0.000000      2.179276  14.0000 183.8400
     11    2 Se   34     11.616503      0.958115      3.858553   6.0000  78.9600
     12    2 Se   34     11.616503      0.958115      0.500000   6.0000  78.9600
     13    1 W    74     13.276000      0.000000      2.179276  14.0000 183.8400
     14    2 Se   34     14.935503      0.958115      3.858553   6.0000  78.9600
     15    2 Se   34     14.935503      0.958115      0.500000   6.0000  78.9600
     16    1 W    74     16.595000      0.000000      2.179276  14.0000 183.8400
     17    2 Se   34     18.254503      0.958115      3.858553   6.0000  78.9600
     18    2 Se   34     18.254503      0.958115      0.500000   6.0000  78.9600
     19    1 W    74     19.914000      0.000000      2.179276  14.0000 183.8400
     20    2 Se   34     21.573503      0.958115      3.858553   6.0000  78.9600
     21    2 Se   34     21.573503      0.958115      0.500000   6.0000  78.9600
     22    1 W    74     23.233000      0.000000      2.179276  14.0000 183.8400
     23    2 Se   34     24.892503      0.958115      3.858553   6.0000  78.9600
     24    2 Se   34     24.892503      0.958115      0.500000   6.0000  78.9600
     25    1 W    74     26.552000      0.000000      2.179276  14.0000 183.8400
     26    2 Se   34     28.211503      0.958115      3.858553   6.0000  78.9600
     27    2 Se   34     28.211503      0.958115      0.500000   6.0000  78.9600
     28    1 W    74     29.871000      0.000000      2.179276  14.0000 183.8400
     29    2 Se   34     31.530503      0.958115      3.858553   6.0000  78.9600
     30    2 Se   34     31.530503      0.958115      0.500000   6.0000  78.9600
     31    1 W    74     33.190000      0.000000      2.179276  14.0000 183.8400
     32    2 Se   34     34.849503      0.958115      3.858553   6.0000  78.9600
     33    2 Se   34     34.849503      0.958115      0.500000   6.0000  78.9600
     34    1 W    74     -1.659500      2.874338      2.179276  14.0000 183.8400
     35    2 Se   34      0.000003      3.832453      3.858553   6.0000  78.9600
     36    2 Se   34      0.000003      3.832453      0.500000   6.0000  78.9600
     37    1 W    74      1.659500      2.874338      2.179276  14.0000 183.8400
     38    2 Se   34      3.319003      3.832453      3.858553   6.0000  78.9600
     39    2 Se   34      3.319003      3.832453      0.500000   6.0000  78.9600
     40    1 W    74      4.978500      2.874338      2.179276  14.0000 183.8400
     41    2 Se   34      6.638003      3.832453      3.858553   6.0000  78.9600
     42    2 Se   34      6.638003      3.832453      0.500000   6.0000  78.9600
     43    1 W    74      8.297500      2.874338      2.179276  14.0000 183.8400
     44    2 Se   34      9.957003      3.832453      3.858553   6.0000  78.9600
     45    2 Se   34      9.957003      3.832453      0.500000   6.0000  78.9600
     46    1 W    74     11.616500      2.874338      2.179276  14.0000 183.8400
     47    2 Se   34     13.276003      3.832453      3.858553   6.0000  78.9600
     48    2 Se   34     13.276003      3.832453      0.500000   6.0000  78.9600
     49    1 W    74     14.935500      2.874338      2.179276  14.0000 183.8400
     50    2 Se   34     16.595003      3.832453      3.858553   6.0000  78.9600
     51    2 Se   34     16.595003      3.832453      0.500000   6.0000  78.9600
     52    1 W    74     18.254500      2.874338      2.179276  14.0000 183.8400
     53    2 Se   34     19.914003      3.832453      3.858553   6.0000  78.9600
     54    2 Se   34     19.914003      3.832453      0.500000   6.0000  78.9600
     55    1 W    74     21.573500      2.874338      2.179276  14.0000 183.8400
     56    2 Se   34     23.233003      3.832453      3.858553   6.0000  78.9600
     57    2 Se   34     23.233003      3.832453      0.500000   6.0000  78.9600
     58    1 W    74     24.892500      2.874338      2.179276  14.0000 183.8400
     59    2 Se   34     26.552003      3.832453      3.858553   6.0000  78.9600
     60    2 Se   34     26.552003      3.832453      0.500000   6.0000  78.9600
     61    1 W    74     28.211500      2.874338      2.179276  14.0000 183.8400
     62    2 Se   34     29.871003      3.832453      3.858553   6.0000  78.9600
     63    2 Se   34     29.871003      3.832453      0.500000   6.0000  78.9600
     64    1 W    74     31.530500      2.874338      2.179276  14.0000 183.8400
     65    2 Se   34     33.190003      3.832453      3.858553   6.0000  78.9600
     66    2 Se   34     33.190003      3.832453      0.500000   6.0000  78.9600
     67    1 W    74     -3.319000      5.748677      2.179276  14.0000 183.8400
     68    2 Se   34     -1.659497      6.706791      3.858553   6.0000  78.9600
     69    2 Se   34     -1.659497      6.706791      0.500000   6.0000  78.9600
     70    1 W    74      0.000000      5.748677      2.179276  14.0000 183.8400
     71    2 Se   34      1.659503      6.706791      3.858553   6.0000  78.9600
     72    2 Se   34      1.659503      6.706791      0.500000   6.0000  78.9600
     73    1 W    74      3.319000      5.748677      2.179276  14.0000 183.8400
     74    2 Se   34      4.978503      6.706791      3.858553   6.0000  78.9600
     75    2 Se   34      4.978503      6.706791      0.500000   6.0000  78.9600
     76    1 W    74      6.638000      5.748677      2.179276  14.0000 183.8400
     77    2 Se   34      8.297503      6.706791      3.858553   6.0000  78.9600
     78    2 Se   34      8.297503      6.706791      0.500000   6.0000  78.9600
     79    1 W    74      9.957000      5.748677      2.179276  14.0000 183.8400
     80    2 Se   34     11.616503      6.706791      3.858553   6.0000  78.9600
     81    2 Se   34     11.616503      6.706791      0.500000   6.0000  78.9600
     82    1 W    74     13.276000      5.748677      2.179276  14.0000 183.8400
     83    2 Se   34     14.935503      6.706791      3.858553   6.0000  78.9600
     84    2 Se   34     14.935503      6.706791      0.500000   6.0000  78.9600
     85    1 W    74     16.595000      5.748677      2.179276  14.0000 183.8400
     86    2 Se   34     18.254503      6.706791      3.858553   6.0000  78.9600
     87    2 Se   34     18.254503      6.706791      0.500000   6.0000  78.9600
     88    1 W    74     19.914000      5.748677      2.179276  14.0000 183.8400
     89    2 Se   34     21.573503      6.706791      3.858553   6.0000  78.9600
     90    2 Se   34     21.573503      6.706791      0.500000   6.0000  78.9600
     91    1 W    74     23.233000      5.748677      2.179276  14.0000 183.8400
     92    2 Se   34     24.892503      6.706791      3.858553   6.0000  78.9600
     93    2 Se   34     24.892503      6.706791      0.500000   6.0000  78.9600
     94    1 W    74     26.552000      5.748677      2.179276  14.0000 183.8400
     95    2 Se   34     28.211503      6.706791      3.858553   6.0000  78.9600
     96    2 Se   34     28.211503      6.706791      0.500000   6.0000  78.9600
     97    1 W    74     29.871000      5.748677      2.179276  14.0000 183.8400
     98    2 Se   34     31.530503      6.706791      3.858553   6.0000  78.9600
     99    2 Se   34     31.530503      6.706791      0.500000   6.0000  78.9600
    100    1 W    74     -4.978500      8.623015      2.179276  14.0000 183.8400
    101    2 Se   34     -3.318997      9.581130      3.858553   6.0000  78.9600
    102    2 Se   34     -3.318997      9.581130      0.500000   6.0000  78.9600
    103    1 W    74     -1.659500      8.623015      2.179276  14.0000 183.8400
    104    2 Se   34      0.000003      9.581130      3.858553   6.0000  78.9600
    105    2 Se   34      0.000003      9.581130      0.500000   6.0000  78.9600
    106    1 W    74      1.659500      8.623015      2.179276  14.0000 183.8400
    107    2 Se   34      3.319003      9.581130      3.858553   6.0000  78.9600
    108    2 Se   34      3.319003      9.581130      0.500000   6.0000  78.9600
    109    1 W    74      4.978500      8.623015      2.179276  14.0000 183.8400
    110    2 Se   34      6.638003      9.581130      3.858553   6.0000  78.9600
    111    2 Se   34      6.638003      9.581130      0.500000   6.0000  78.9600
    112    1 W    74      8.297500      8.623015      2.179276  14.0000 183.8400
    113    2 Se   34      9.957003      9.581130      3.858553   6.0000  78.9600
    114    2 Se   34      9.957003      9.581130      0.500000   6.0000  78.9600
    115    1 W    74     11.616500      8.623015      2.179276  14.0000 183.8400
    116    2 Se   34     13.276003      9.581130      3.858553   6.0000  78.9600
    117    2 Se   34     13.276003      9.581130      0.500000   6.0000  78.9600
    118    1 W    74     14.935500      8.623015      2.179276  14.0000 183.8400
    119    2 Se   34     16.595003      9.581130      3.858553   6.0000  78.9600
    120    2 Se   34     16.595003      9.581130      0.500000   6.0000  78.9600
    121    1 W    74     18.254500      8.623015      2.179276  14.0000 183.8400
    122    2 Se   34     19.914003      9.581130      3.858553   6.0000  78.9600
    123    2 Se   34     19.914003      9.581130      0.500000   6.0000  78.9600
    124    1 W    74     21.573500      8.623015      2.179276  14.0000 183.8400
    125    2 Se   34     23.233003      9.581130      3.858553   6.0000  78.9600
    126    2 Se   34     23.233003      9.581130      0.500000   6.0000  78.9600
    127    1 W    74     24.892500      8.623015      2.179276  14.0000 183.8400
    128    2 Se   34     26.552003      9.581130      3.858553   6.0000  78.9600
    129    2 Se   34     26.552003      9.581130      0.500000   6.0000  78.9600
    130    1 W    74     28.211500      8.623015      2.179276  14.0000 183.8400
    131    2 Se   34     29.871003      9.581130      3.858553   6.0000  78.9600
    132    2 Se   34     29.871003      9.581130      0.500000   6.0000  78.9600
    133    1 W    74     -6.638000     11.497353      2.179276  14.0000 183.8400
    134    2 Se   34     -4.978497     12.455468      3.858553   6.0000  78.9600
    135    2 Se   34     -4.978497     12.455468      0.500000   6.0000  78.9600
    136    1 W    74     -3.319000     11.497353      2.179276  14.0000 183.8400
    137    2 Se   34     -1.659497     12.455468      3.858553   6.0000  78.9600
    138    2 Se   34     -1.659497     12.455468      0.500000   6.0000  78.9600
    139    1 W    74      0.000000     11.497353      2.179276  14.0000 183.8400
    140    2 Se   34      1.659503     12.455468      3.858553   6.0000  78.9600
    141    2 Se   34      1.659503     12.455468      0.500000   6.0000  78.9600
    142    1 W    74      3.319000     11.497353      2.179276  14.0000 183.8400
    143    2 Se   34      4.978503     12.455468      3.858553   6.0000  78.9600
    144    2 Se   34      4.978503     12.455468      0.500000   6.0000  78.9600
    145    1 W    74      6.638000     11.497353      2.179276  14.0000 183.8400
    146    2 Se   34      8.297503     12.455468      3.858553   6.0000  78.9600
    147    2 Se   34      8.297503     12.455468      0.500000   6.0000  78.9600
    148    1 W    74      9.957000     11.497353      2.179276  14.0000 183.8400
    149    2 Se   34     11.616503     12.455468      3.858553   6.0000  78.9600
    150    2 Se   34     11.616503     12.455468      0.500000   6.0000  78.9600
    151    1 W    74     13.276000     11.497353      2.179276  14.0000 183.8400
    152    2 Se   34     14.935503     12.455468      3.858553   6.0000  78.9600
    153    2 Se   34     14.935503     12.455468      0.500000   6.0000  78.9600
    154    1 W    74     16.595000     11.497353      2.179276  14.0000 183.8400
    155    2 Se   34     18.254503     12.455468      3.858553   6.0000  78.9600
    156    2 Se   34     18.254503     12.455468      0.500000   6.0000  78.9600
    157    1 W    74     19.914000     11.497353      2.179276  14.0000 183.8400
    158    2 Se   34     21.573503     12.455468      3.858553   6.0000  78.9600
    159    2 Se   34     21.573503     12.455468      0.500000   6.0000  78.9600
    160    1 W    74     23.233000     11.497353      2.179276  14.0000 183.8400
    161    2 Se   34     24.892503     12.455468      3.858553   6.0000  78.9600
    162    2 Se   34     24.892503     12.455468      0.500000   6.0000  78.9600
    163    1 W    74     26.552000     11.497353      2.179276  14.0000 183.8400
    164    2 Se   34     28.211503     12.455468      3.858553   6.0000  78.9600
    165    2 Se   34     28.211503     12.455468      0.500000   6.0000  78.9600
    166    1 W    74     -8.297500     14.371692      2.179276  14.0000 183.8400
    167    2 Se   34     -6.637997     15.329806      3.858553   6.0000  78.9600
    168    2 Se   34     -6.637997     15.329806      0.500000   6.0000  78.9600
    169    1 W    74     -4.978500     14.371692      2.179276  14.0000 183.8400
    170    2 Se   34     -3.318997     15.329806      3.858553   6.0000  78.9600
    171    2 Se   34     -3.318997     15.329806      0.500000   6.0000  78.9600
    172    1 W    74     -1.659500     14.371692      2.179276  14.0000 183.8400
    173    2 Se   34      0.000003     15.329806      3.858553   6.0000  78.9600
    174    2 Se   34      0.000003     15.329806      0.500000   6.0000  78.9600
    175    1 W    74      1.659500     14.371692      2.179276  14.0000 183.8400
    176    2 Se   34      3.319003     15.329806      3.858553   6.0000  78.9600
    177    2 Se   34      3.319003     15.329806      0.500000   6.0000  78.9600
    178    1 W    74      4.978500     14.371692      2.179276  14.0000 183.8400
    179    2 Se   34      6.638003     15.329806      3.858553   6.0000  78.9600
    180    2 Se   34      6.638003     15.329806      0.500000   6.0000  78.9600
    181    1 W    74      8.297500     14.371692      2.179276  14.0000 183.8400
    182    2 Se   34      9.957003     15.329806      3.858553   6.0000  78.9600
    183    2 Se   34      9.957003     15.329806      0.500000   6.0000  78.9600
    184    1 W    74     11.616500     14.371692      2.179276  14.0000 183.8400
    185    2 Se   34     13.276003     15.329806      3.858553   6.0000  78.9600
    186    2 Se   34     13.276003     15.329806      0.500000   6.0000  78.9600
    187    1 W    74     14.935500     14.371692      2.179276  14.0000 183.8400
    188    2 Se   34     16.595003     15.329806      3.858553   6.0000  78.9600
    189    2 Se   34     16.595003     15.329806      0.500000   6.0000  78.9600
    190    1 W    74     18.254500     14.371692      2.179276  14.0000 183.8400
    191    2 Se   34     19.914003     15.329806      3.858553   6.0000  78.9600
    192    2 Se   34     19.914003     15.329806      0.500000   6.0000  78.9600
    193    1 W    74     21.573500     14.371692      2.179276  14.0000 183.8400
    194    2 Se   34     23.233003     15.329806      3.858553   6.0000  78.9600
    195    2 Se   34     23.233003     15.329806      0.500000   6.0000  78.9600
    196    1 W    74     24.892500     14.371692      2.179276  14.0000 183.8400
    197    2 Se   34     26.552003     15.329806      3.858553   6.0000  78.9600
    198    2 Se   34     26.552003     15.329806      0.500000   6.0000  78.9600
    199    1 W    74     -9.957000     17.246030      2.179276  14.0000 183.8400
    200    2 Se   34     -8.297497     18.204145      3.858553   6.0000  78.9600
    201    2 Se   34     -8.297497     18.204145      0.500000   6.0000  78.9600
    202    1 W    74     -6.638000     17.246030      2.179276  14.0000 183.8400
    203    2 Se   34     -4.978497     18.204145      3.858553   6.0000  78.9600
    204    2 Se   34     -4.978497     18.204145      0.500000   6.0000  78.9600
    205    1 W    74     -3.319000     17.246030      2.179276  14.0000 183.8400
    206    2 Se   34     -1.659497     18.204145      3.858553   6.0000  78.9600
    207    2 Se   34     -1.659497     18.204145      0.500000   6.0000  78.9600
    208    1 W    74      0.000000     17.246030      2.179276  14.0000 183.8400
    209    2 Se   34      1.659503     18.204145      3.858553   6.0000  78.9600
    210    2 Se   34      1.659503     18.204145      0.500000   6.0000  78.9600
    211    1 W    74      3.319000     17.246030      2.179276  14.0000 183.8400
    212    2 Se   34      4.978503     18.204145      3.858553   6.0000  78.9600
    213    2 Se   34      4.978503     18.204145      0.500000   6.0000  78.9600
    214    1 W    74      6.638000     17.246030      2.179276  14.0000 183.8400
    215    2 Se   34      8.297503     18.204145      3.858553   6.0000  78.9600
    216    2 Se   34      8.297503     18.204145      0.500000   6.0000  78.9600
    217    1 W    74      9.957000     17.246030      2.179276  14.0000 183.8400
    218    2 Se   34     11.616503     18.204145      3.858553   6.0000  78.9600
    219    2 Se   34     11.616503     18.204145      0.500000   6.0000  78.9600
    220    1 W    74     13.276000     17.246030      2.179276  14.0000 183.8400
    221    2 Se   34     14.935503     18.204145      3.858553   6.0000  78.9600
    222    2 Se   34     14.935503     18.204145      0.500000   6.0000  78.9600
    223    1 W    74     16.595000     17.246030      2.179276  14.0000 183.8400
    224    2 Se   34     18.254503     18.204145      3.858553   6.0000  78.9600
    225    2 Se   34     18.254503     18.204145      0.500000   6.0000  78.9600
    226    1 W    74     19.914000     17.246030      2.179276  14.0000 183.8400
    227    2 Se   34     21.573503     18.204145      3.858553   6.0000  78.9600
    228    2 Se   34     21.573503     18.204145      0.500000   6.0000  78.9600
    229    1 W    74     23.233000     17.246030      2.179276  14.0000 183.8400
    230    2 Se   34     24.892503     18.204145      3.858553   6.0000  78.9600
    231    2 Se   34     24.892503     18.204145      0.500000   6.0000  78.9600
    232    1 W    74    -11.616500     20.120368      2.179276  14.0000 183.8400
    233    2 Se   34     -9.956997     21.078483      3.858553   6.0000  78.9600
    234    2 Se   34     -9.956997     21.078483      0.500000   6.0000  78.9600
    235    1 W    74     -8.297500     20.120368      2.179276  14.0000 183.8400
    236    2 Se   34     -6.637997     21.078483      3.858553   6.0000  78.9600
    237    2 Se   34     -6.637997     21.078483      0.500000   6.0000  78.9600
    238    1 W    74     -4.978500     20.120368      2.179276  14.0000 183.8400
    239    2 Se   34     -3.318997     21.078483      3.858553   6.0000  78.9600
    240    2 Se   34     -3.318997     21.078483      0.500000   6.0000  78.9600
    241    1 W    74     -1.659500     20.120368      2.179276  14.0000 183.8400
    242    2 Se   34      0.000003     21.078483      3.858553   6.0000  78.9600
    243    2 Se   34      0.000003     21.078483      0.500000   6.0000  78.9600
    244    1 W    74      1.659500     20.120368      2.179276  14.0000 183.8400
    245    2 Se   34      3.319003     21.078483      3.858553   6.0000  78.9600
    246    2 Se   34      3.319003     21.078483      0.500000   6.0000  78.9600
    247    1 W    74      4.978500     20.120368      2.179276  14.0000 183.8400
    248    2 Se   34      6.638003     21.078483      3.858553   6.0000  78.9600
    249    2 Se   34      6.638003     21.078483      0.500000   6.0000  78.9600
    250    1 W    74      8.297500     20.120368      2.179276  14.0000 183.8400
    251    2 Se   34      9.957003     21.078483      3.858553   6.0000  78.9600
    252    2 Se   34      9.957003     21.078483      0.500000   6.0000  78.9600
    253    1 W    74     11.616500     20.120368      2.179276  14.0000 183.8400
    254    2 Se   34     13.276003     21.078483      3.858553   6.0000  78.9600
    255    2 Se   34     13.276003     21.078483      0.500000   6.0000  78.9600
[...]
 max memory usage/rank             892.047360E+06
 # max total images/rank                        1
 # max 3D layers                                1
 # MPI messages exchanged                11856000
 MPI messages size (bytes):
  total size                         4.111486E+12
  min size                           0.000000E+00
  max size                         401.408000E+03
  average size                     346.785281E+03
 MPI breakdown and total messages size (bytes):
             size <=      128               39000                        0
       128 < size <=     8192                   0                        0
      8192 < size <=    32768               12480                354264768
     32768 < size <=   131072               10920                724158864
    131072 < size <=  4194304            11793600            4110411673368
   4194304 < size <= 16777216                   0                        0
  16777216 < size                               0                        0
 -------------------------------------------------------------------------------
 -                                                                             -
 -                      DBCSR MESSAGE PASSING PERFORMANCE                      -
 -                                                                             -
 -------------------------------------------------------------------------------
 ROUTINE             CALLS      AVE VOLUME [Bytes]
 MP_Bcast               93                     12.
 MP_Allreduce          863                     12.
 MP_Alltoall        101607                6525885.
 MP_ISend            15200                 168106.
 MP_IRecv            15200                 167457.
 -------------------------------------------------------------------------------

 -------------------------------------------------------------------------------
 -                                                                             -
 -                                DBM STATISTICS                               -
 -                                                                             -
 -------------------------------------------------------------------------------
    M  x    N  x    K                                          COUNT     PERCENT
   ??  x   ??  x  ???                                   100679691893      11.10%
   ??  x   ??  x >999                                     1717472698       0.19%
  ???  x   ??  x   ??                                   120317884348      13.26%
   ??  x  ???  x   ??                                     8590503264       0.95%
    ?  x   ??  x  ???                                    24825784310       2.74%
    ?  x  ???  x    ?                                   106382654618      11.73%
   ??  x >999  x    ?                                     7483023658       0.82%
   ??  x    ?  x  ???                                    24319873956       2.68%
   ??  x  ???  x    ?                                    32857201366       3.62%
    ?  x >999  x    ?                                    24225607675       2.67%
   ??  x   ??  x   ??                                    11172184332       1.23%
    ?  x    ?  x    ?                                   285951861351      31.52%
    ?  x >999  x   ??                                     6634307928       0.73%
    ?  x    ?  x  ???                                    88081257773       9.71%
    ?  x  ???  x   ??                                    27832149084       3.07%
   ??  x >999  x   ??                                     2048257884       0.23%
    ?  x   ??  x >999                                     6166830628       0.68%
   ??  x    ?  x >999                                     6099963253       0.67%
    ?  x    ?  x >999                                    21897895836       2.41%
 -------------------------------------------------------------------------------

 -------------------------------------------------------------------------------
 -                                                                             -
 -                                GRID STATISTICS                              -
 -                                                                             -
 -------------------------------------------------------------------------------
 LP    KERNEL             BACKEND                              COUNT     PERCENT
 5     collocate general  REF                               37056492      24.26%
 5     integrate general  REF                               37056492      24.26%
 4     collocate general  REF                               23953644      15.68%
 4     integrate general  REF                               23953644      15.68%
 6     collocate general  REF                               14501850       9.49%
 6     integrate general  REF                               14501850       9.49%
 0     collocate general  REF                                1161600       0.76%
 0     integrate general  REF                                 580800       0.38%
 -------------------------------------------------------------------------------

 MEMORY| Estimated peak process memory [MiB]                                4792

 -------------------------------------------------------------------------------
 ----                             MULTIGRID INFO                            ----
 -------------------------------------------------------------------------------
 count for grid        1:       30418065          cutoff [a.u.]          250.00
 count for grid        2:       19348858          cutoff [a.u.]           83.33
 count for grid        3:        6863987          cutoff [a.u.]           27.78
 count for grid        4:        2000193          cutoff [a.u.]            9.26
 total gridlevel count  :       58631103

 -------------------------------------------------------------------------------
 -                                                                             -
 -                         MESSAGE PASSING PERFORMANCE                         -
 -                                                                             -
 -------------------------------------------------------------------------------

 ROUTINE             CALLS      AVE VOLUME [Bytes]
 MP_Group             5945
 MP_Bcast             8217                 919299.
 MP_Allreduce        12611                  17003.
 MP_Sync              9884
 MP_Alltoall          5521
 MP_SendRecv        300612                   8640.
 MP_ISendRecv       300612                   8640.
 MP_Wait            335137
 MP_comm_split        3471
 MP_ISend          1066560                 269426.
 MP_IRecv           783286                 205192.
 -------------------------------------------------------------------------------


 -------------------------------------------------------------------------------
 -                                                                             -
 -                           R E F E R E N C E S                               -
 -                                                                             -
 -------------------------------------------------------------------------------
 
 CP2K version 2023.1 (Development Version), the CP2K developers group (2023).
 CP2K is freely available from https://www.cp2k.org/ .

 Kuehne,Thomas D.; Iannuzzi,Marcella; Del Ben,Mauro;
 Rybkin,Vladimir V.; Seewald,Patrick; Stein,Frederick; Laino,Teodoro;
 Khaliullin,Rustam Z.; Schuett,Ole; Schiffmann,Florian; Golze,Dorothea;
 Wilhelm,Jan; Chulkov,Sergey; Bani-Hashemian,Mohammad Hossein;
 Weber,Valery; Borstnik,Urban; Taillefumier,Mathieu;
 Jakobovits,Alice Shoshana; Lazzaro,Alfio; Pabst,Hans; Mueller,Tiziano;
 Schade,Robert; Guidon,Manuel; Andermatt,Samuel; Holmberg,Nico;
 Schenter,Gregory K.; Hehn,Anna; Bussy,Augustin; Belleflamme,Fabian;
 Tabacchi,Gloria; Gloess,Andreas; Lass,Michael; Bethune,Iain;
 Mundy,Christopher J.; Plessl,Christian; Watkins,Matt;
 VandeVondele,Joost; Krack,Matthias; Hutter,Juerg. 
 The Journal of Chemical Physics, 152 (19), (2020). 
 CP2K: An electronic structure and molecular dynamics software package -
 Quickstep: Efficient and accurate electronic structure calculations.
 https://doi.org/10.1063/5.0007045

 Wilhelm, J; Golze, D; Talirz, L; Hutter, J; Pignedoli, CA. 
 JOURNAL OF PHYSICAL CHEMISTRY LETTERS, 9, 306-312 (2018). 
 Toward GW calculations on thousands of atoms.
 https://doi.org/10.1021/acs.jpclett.7b02740

 Wilhelm, J; Hutter, J. PHYSICAL REVIEW B, 95, 235123 (2017). 
 Periodic GW calculations in the Gaussian and plane-waves scheme.
 https://doi.org/10.1103/PhysRevB.95.235123

 Wilhelm, J; Del Ben, M; Hutter, J. 
 JOURNAL OF CHEMICAL THEORY AND COMPUTATION, 12, 3623-3635 (2016). 
 GW in the Gaussian and plane waves scheme with application to linear acenes.
 https://doi.org/10.1021/acs.jctc.6b00380

 Wilhelm, J; Seewald, P; Del Ben, M; Hutter, J. 
 JOURNAL OF CHEMICAL THEORY AND COMPUTATION, 12, 5851-5859 (2016). 
 Large-Scale Cubic-Scaling Random Phase Approximation Correlation.
 https://doi.org/10.1021/acs.jctc.6b00840

 Schuett, Ole; Messmer, Peter; Hutter, Juerg; VandeVondele, Joost. 
 Electronic Structure Calculations on Graphics Processing Units, John
 Wiley & Sons, Ltd, 173-190 (2016). 
 GPU-Accelerated Sparse Matrix-Matrix Multiplication for
 Linear Scaling Density Functional Theory.
 https://doi.org/10.1002/9781118670712.ch8

 Heinecke, A; Henry, G; Hutchinson, M; Pabst, H. 
 Proceedings of Intl. Supercomputing Conference, 981-991 (2016). 
 LIBXSMM: Accelerating Small Matrix Multiplications
 by Runtime Code Generation.
 https://doi.org/10.1109/SC.2016.83

 Del Ben, M; Schuett, O; Wentz, T; Messmer, P; Hutter, J;
 VandeVondele, J. 
 COMPUTER PHYSICS COMMUNICATIONS, 187, 120-129 (2015). 
 Enabling simulation at the fifth rung of DFT: Large scale RPA
 calculations with excellent time to solution.
 https://doi.org/10.1016/j.cpc.2014.10.021

 Borstnik, U; VandeVondele, J; Weber, V; Hutter, J. 
 PARALLEL COMPUTING, 40 (5-6), 47-58 (2014). 
 Sparse matrix multiplication: The distributed block-compressed sparse
 row library.
 https://doi.org/10.1016/j.parco.2014.03.012

 Hutter, J; Iannuzzi, M; Schiffmann, F; VandeVondele, J. 
 WIREs Comput Mol Sci., 4 (1), 15-25 (2014). 
 CP2K: atomistic simulations of condensed matter systems.
 https://doi.org/10.1002/wcms.1159

 Marek, A; Blum, V; Johanni, R; Havu, V; Lang, B; Auckenthaler, T;
 Heinecke, A; Bungartz, H; Lederer, H. 
 Journal of Physics: Condensed Matter, 26 (21), (2014). 
 The ELPA library: scalable parallel eigenvalue solutions for
 electronic structure
 theory and computational science.
 https://doi.org/10.1088/0953-8984/26/21/213201

 Del Ben, M; Hutter, J; VandeVondele, J. 
 JOURNAL OF CHEMICAL THEORY AND COMPUTATION, 9 (6), 2654-2671 (2013). 
 Electron Correlation in the Condensed Phase from a Resolution of
 Identity Approach Based on the Gaussian and Plane Waves Scheme.
 https://doi.org/10.1021/ct4002202

 Del Ben, M; Hutter, J; VandeVondele, J. 
 JOURNAL OF CHEMICAL THEORY AND COMPUTATION, 8 (11), 4177-4188 (2012). 
 Second-Order Moller-Plesset Perturbation Theory in the Condensed Phase:
 An Efficient and Massively Parallel Gaussian and Plane Waves Approach.
 https://doi.org/10.1021/ct300531w

 VandeVondele, J; Hutter, J. 
 JOURNAL OF CHEMICAL PHYSICS, 127 (11), 114105 (2007). 
 Gaussian basis sets for accurate calculations on molecular systems in
 gas and condensed phases.
 https://doi.org/10.1063/1.2770708

 Krack, M. 
 THEORETICAL CHEMISTRY ACCOUNTS, 114 (1-3), 145-152 (2005). 
 Pseudopotentials for H to Kr optimized for gradient-corrected
 exchange-correlation functionals.
 https://doi.org/10.1007/s00214-005-0655-y

 VandeVondele, J; Krack, M; Mohamed, F; Parrinello, M; Chassaing, T;
 Hutter, J. COMPUTER PHYSICS COMMUNICATIONS, 167 (2), 103-128 (2005). 
 QUICKSTEP: Fast and accurate density functional calculations using a
 mixed Gaussian and plane waves approach.
 https://doi.org/10.1016/j.cpc.2004.12.014

 Frigo, M; Johnson, SG. 
 PROCEEDINGS OF THE IEEE, 93 (2), 216-231 (2005). 
 The design and implementation of FFTW3.
 https://doi.org/10.1109/JPROC.2004.840301

 Hartwigsen, C; Goedecker, S; Hutter, J. 
 PHYSICAL REVIEW B, 58 (7), 3641-3662 (1998). 
 Relativistic separable dual-space Gaussian pseudopotentials from H to Rn.
 https://doi.org/10.1103/PhysRevB.58.3641

 Lippert, G; Hutter, J; Parrinello, M. 
 MOLECULAR PHYSICS, 92 (3), 477-487 (1997). 
 A hybrid Gaussian and plane wave density functional scheme.
 https://doi.org/10.1080/002689797170220

 Goedecker, S; Teter, M; Hutter, J. 
 PHYSICAL REVIEW B, 54 (3), 1703-1710 (1996). 
 Separable dual-space Gaussian pseudopotentials.
 https://doi.org/10.1103/PhysRevB.54.1703


 -------------------------------------------------------------------------------
 -                                                                             -
 -                                T I M I N G                                  -
 -                                                                             -
 -------------------------------------------------------------------------------
 SUBROUTINE                       CALLS  ASD         SELF TIME        TOTAL TIME
                                MAXIMUM       AVERAGE  MAXIMUM  AVERAGE  MAXIMUM
 CP2K                                 1  1.0    0.010    0.027 9584.963 9585.009
 qs_energies                          1  2.0    0.000    0.007 9583.973 9584.018
 mp2_main                             1  3.0    0.000    0.000 9282.003 9282.047
 mp2_gpw_main                         1  4.0    0.003    0.004 9279.629 9279.673
 rpa_ri_compute_en                    1  5.0    0.000    0.000 8548.383 8548.423
 rpa_num_int                          1  6.0    0.000    0.000 7994.206 7994.244
 rpa_num_int_RPA_matrix_operati      10  7.0    0.000    0.000 4048.821 4048.848
 invert_eps_compute_W_and_Erpa_      10  8.0    0.002    0.003 4048.773 4048.790
 cp_cfm_heevd                       441 10.2 3314.780 3317.598 3314.780 3317.598
 cp_cfm_power                       312  9.7    0.272    0.303 3151.813 3152.249
 dbt_total                         1907  9.8    0.011    0.016 3149.850 3149.866
 compute_Q_kp_RPA                   260  9.0    0.100    0.145 3048.960 3049.163
 dbt_contract                       765 11.0    0.046    0.055 2779.407 2780.502
 dbt_tas_total                     1206 13.4   14.352   18.212 2741.297 2741.313
 dbt_tas_multiply                  1065 12.8    0.003    0.004 2733.463 2733.478
 compute_QP_energies                  1  7.0    0.001    0.007 2502.024 2502.036
 compute_self_energy_cubic_gw_k       1  8.0    0.062    0.080 2501.820 2501.865
 parallel_gemm_cfm                 4194 10.2    0.012    0.015 1897.923 1911.814
 parallel_gemm_cfm_cosma           4194 11.2 1897.911 1911.804 1897.911 1911.804
 dbt_tas_dbm                       1065 14.8    0.004    0.005 1681.343 1681.355
 dbm_multiply                      1065 16.8 1380.168 1476.597 1380.168 1476.597
 compute_mat_P_omega                  1  7.0    0.001    0.009 1440.042 1440.079
 compute_mat_P_omega_contract        10  8.0    1.638    2.191 1422.389 1422.411
 contract_to_self_energy            198  9.0    0.004    0.014 1101.397 1102.400
 mp_sync                           9884 12.7  534.066  905.572  534.066  905.572
 dbt_tas_mm_2                       289 15.0    0.002    0.002  903.514  903.520
 compute_Wc_real_space_tau_GW       260  9.0    0.002    0.004  855.112  855.292
 mp2_ri_gpw_compute_in                1  5.0    0.001    0.001  731.230  731.236
 trafo_to_mo_and_kpoints             21  9.0    0.262    0.280  717.149  717.153
 get_2c_integrals                     1  6.0    0.000    0.000  716.364  716.368
 mp_waitall_2                      5563 16.7  583.319  679.688  583.319  679.688
 tensor_operation_3c_W               99  9.0    0.000    0.001  637.977  638.559
 inversion_of_M_and_mult_with_c       1  7.0    0.000    0.002  608.502  608.512
 compute_mat_P_omega_calc_P_t        90  9.0    0.000    0.000  573.568  573.571
 get_bandstruc_and_k_dependent_       1  6.0    0.001    0.002  554.167  554.174
 create_kp_and_calc_kp_orbitals       3  7.0    0.005    0.017  554.166  554.172
 compute_Wc_real_space_tau_GW_3     260 10.0    0.001    0.002  534.222  544.741
 cp_cfm_geeig                       129  8.0    0.003    0.003  523.030  523.585
 compute_mat_P_omega_calc_M_occ      90  9.0    1.654    2.199  435.001  435.003
 dbt_tas_communicate_buffer        1955 17.3    0.323    0.477  409.540  428.720
 dbt_tas_replicate                  928 15.0   18.991   52.211  407.779  424.755
 dbm_redistribute                  2394 15.8  311.057  417.393  311.057  417.393
 compute_Wc_real_space_tau_GW_2     260 10.0    0.021    0.024  313.311  395.212
 dbt_tas_replicate_communicate_     717 16.3    0.064    0.104  374.104  391.510
 mp_isend_dv                     535622 16.6   70.180  389.314   70.180  389.314
 dbt_tas_mm_3N                      198 16.5    0.000    0.001  306.207  363.645
 dbt_copy                           949 10.8    0.057    0.073  283.449  329.207
 dbt_reshape                        929 11.8   29.218   33.464  281.973  327.612
 convert_to_new_pgrid              3195 14.8   27.320   66.030  234.924  316.618
 cp_cfm_cholesky_invert             260 11.0  302.964  303.787  302.964  303.787
 scf_env_do_scf                       1  3.0    0.000    0.001  299.527  299.864
 scf_env_do_scf_inner_loop           93  4.0    0.002    0.004  299.526  299.864
 dbt_communicate_buffer             929 12.8    0.175    0.194  244.812  289.088
 compute_mat_P_omega_calc_M_vir      90  9.0    0.000    0.000  217.312  217.313
 qs_scf_new_mos                      93  5.0    0.001    0.001  210.427  210.729
 eigensolver                         94  6.0    0.006    0.008  202.954  203.235
 cp_fm_diag_elpa                     94  7.0    0.001    0.001  185.119  185.229
 cp_fm_diag_elpa_base                94  8.0  184.880  184.980  185.010  185.012
 dbt_tas_mm_3T                      396 16.5    0.001    0.001  146.293  173.893
 mp_alltoall_d11v                 47069 12.8  111.038  141.637  111.038  141.637
 copy_dbcsr_to_fm                  3926 10.4    0.060    0.066  125.972  137.559
 dbt_tas_mm_1N                      182 15.0    0.000    0.001  101.220  133.558
 real_space_to_kpoint_transform      37  9.8    2.576    3.054  120.500  120.546
 dbcsr_new_transposed              7542 10.8    0.370    0.431  117.398  117.675
 dbcsr_redistribute                7448 11.9    1.391    1.689  116.941  117.248
 cp_cfm_cholesky_decompose          389  9.7  116.425  116.650  116.425  116.650
 cholesky_decomp_Q                  260  9.0    0.176    0.207  103.330  103.669
 compute_V_by_lattice_sum             1  7.0    0.000    0.000  102.246  102.251
 mp_sum_l                          6937 13.8   67.084   99.717   67.084   99.717
 build_2c_coulomb_matrix_kp           2  8.0    0.000    0.000   82.772   99.702
 lattice_sum                          2  9.0    1.815    2.197   82.771   99.702
 mp_alltoall_i11v                 38909 12.6   86.817   98.884   86.817   98.884
 compute_v_transl                 13312 10.0   80.648   97.310   80.919   97.698
 -------------------------------------------------------------------------------

 The number of warnings for this run is : 2
 
 -------------------------------------------------------------------------------
  **** **** ******  **  PROGRAM ENDED AT                 2023-06-03 01:23:21.380
 ***** ** ***  *** **   PROGRAM RAN ON                                  n2cn0192
 **    ****   ******    PROGRAM RAN BY                                  eprop2d1
 ***** **    ** ** **   PROGRAM PROCESS ID                               2571765
  **** **  *******  **  PROGRAM STOPPED IN /scratch/hpc-prf-eprop2d/eprop2d1_Jan
                                           /02_MoS2_MoSe2_WS2_WSe2/4_WSe2/11x11_
                                           PBE/4_reg_RI_1e-2_TZVP_standard_RI
