 DBCSR| CPU Multiplication driver                                           XSMM (U)
 DBCSR| Multrec recursion limit                                              512 (U)
 DBCSR| Multiplication stack size                                           1000 (D)
 DBCSR| Maximum elements for images                                    UNLIMITED (U)
 DBCSR| Multiplicative factor virtual images                                   1 (U)
 DBCSR| Use multiplication densification                                       T (D)
 DBCSR| Multiplication size stacks                                             3 (U)
 DBCSR| Use memory pool for CPU allocation                                     F (U)
 DBCSR| Number of 3D layers                                               SINGLE (U)
 DBCSR| Use MPI memory allocation                                              F (U)
 DBCSR| Use RMA algorithm                                                      F (U)
 DBCSR| Use Communication thread                                               T (U)
 DBCSR| Communication thread load                                             75 (D)
 DBCSR| MPI: My process id                                                     0
 DBCSR| MPI: Number of processes                                            1520
 DBCSR| OMP: Current number of threads                                         4
 DBCSR| OMP: Max number of threads                                             4
 DBCSR| Split modifier for TAS multiplication algorithm                  1.0E+00 (U)


  **** **** ******  **  PROGRAM STARTED AT               2023-05-27 21:56:29.321
 ***** ** ***  *** **   PROGRAM STARTED ON                              n2cn0301
 **    ****   ******    PROGRAM STARTED BY                              eprop2d1
 ***** **    ** ** **   PROGRAM PROCESS ID                               3899437
  **** **  *******  **  PROGRAM STARTED IN /scratch/hpc-prf-eprop2d/eprop2d1_Jan
                                           /02_MoS2_MoSe2_WS2_WSe2/4_WSe2/10x10/
                                           5_reg_RI_1e-2_TZV2P_huge_RI_gap

 CP2K| version string:                 CP2K version 2023.1 (Development Version)
 CP2K| source code revision number:                                  git:a5f008f
 CP2K| cp2kflags: omp libint fftw3 libxc elpa parallel scalapack cosma xsmm plum
 CP2K|            ed2 spglib sirius libvori libbqb libvdwxc
 CP2K| is freely available from                            https://www.cp2k.org/
 CP2K| Program compiled at                         Tue Apr 11 10:47:55 CEST 2023
 CP2K| Program compiled on                                              n2login5
 CP2K| Program compiled for                                                local
 CP2K| Data directory path    /opt/software/pc2/EB-SW/software/CP2K/2023.1-foss-
 CP2K| Input file name                                                    GW.inp

 GLOBAL| Force Environment number                                              1
 GLOBAL| Basis set file name                                        BASIS_MOLOPT
 GLOBAL| Potential file name                                      GTH_POTENTIALS
 GLOBAL| MM Potential file name                                     MM_POTENTIAL
 GLOBAL| Coordinate file name                                      __STD_INPUT__
 GLOBAL| Method name                                                        CP2K
 GLOBAL| Project name                                                       MoS2
 GLOBAL| Run type                                                         ENERGY
 GLOBAL| FFT library                                                       FFTW3
 GLOBAL| Diagonalization library                                            ELPA
 GLOBAL| DGEMM library                                                      BLAS
 GLOBAL| Minimum number of eigenvectors for ELPA usage                        16
 GLOBAL| Orthonormality check for eigenvectors                          DISABLED
 GLOBAL| Matrix multiplication library                                     COSMA
 GLOBAL| All-to-all communication in single precision                          F
 GLOBAL| FFTs using library dependent lengths                                  F
 GLOBAL| Grid backend                                                       AUTO
 GLOBAL| Global print level                                               MEDIUM
 GLOBAL| MPI I/O enabled                                                       T
 GLOBAL| Total number of message passing processes                          1520
 GLOBAL| Number of threads for this process                                    4
 GLOBAL| This output is from process                                           0
 GLOBAL| Stack size for threads created by OpenMP (OMP_STACKSIZE)        default
 GLOBAL| CPU model name                          AMD EPYC 7763 64-Core Processor
 GLOBAL| CPUID                                                              1002
 GLOBAL| Compiled for CPUID                                                    0

 *** HINT in environment.F:882 :: The compiler target flags (generic) used ***
 *** to build this binary cannot exploit all extensions of this CPU model  ***
 *** (x86_avx2). Consider compiler target flags as part of FCFLAGS and     ***
 *** CFLAGS (ARCH file).                                                   ***


 MEMORY| system memory details [Kb]
 MEMORY|                        rank 0           min           max       average
 MEMORY| MemTotal            263914152     263914148     263914156     263914149
 MEMORY| MemFree             247871724     233629732     255207024     246858660
 MEMORY| Buffers                270592        101288        350864        259699
 MEMORY| Cached                5894244       3325756      14847492       5989618
 MEMORY| Slab                  4382112        946748      12983500       5287990
 MEMORY| SReclaimable           306588        134028        620352        286424
 MEMORY| MemLikelyFree       254343148     244929404     258775288     253394402


 *** Fundamental physical constants (SI units) ***

 *** Literature: B. J. Mohr and B. N. Taylor,
 ***             CODATA recommended values of the fundamental physical
 ***             constants: 2006, Web Version 5.1
 ***             http://physics.nist.gov/constants

 Speed of light in vacuum [m/s]                             2.99792458000000E+08
 Magnetic constant or permeability of vacuum [N/A**2]       1.25663706143592E-06
 Electric constant or permittivity of vacuum [F/m]          8.85418781762039E-12
 Planck constant (h) [J*s]                                  6.62606896000000E-34
 Planck constant (h-bar) [J*s]                              1.05457162825177E-34
 Elementary charge [C]                                      1.60217648700000E-19
 Electron mass [kg]                                         9.10938215000000E-31
 Electron g factor [ ]                                     -2.00231930436220E+00
 Proton mass [kg]                                           1.67262163700000E-27
 Fine-structure constant                                    7.29735253760000E-03
 Rydberg constant [1/m]                                     1.09737315685270E+07
 Avogadro constant [1/mol]                                  6.02214179000000E+23
 Boltzmann constant [J/K]                                   1.38065040000000E-23
 Atomic mass unit [kg]                                      1.66053878200000E-27
 Bohr radius [m]                                            5.29177208590000E-11

 *** Conversion factors ***

 [u] -> [a.u.]                                              1.82288848426455E+03
 [Angstrom] -> [Bohr] = [a.u.]                              1.88972613288564E+00
 [a.u.] = [Bohr] -> [Angstrom]                              5.29177208590000E-01
 [a.u.] -> [s]                                              2.41888432650478E-17
 [a.u.] -> [fs]                                             2.41888432650478E-02
 [a.u.] -> [J]                                              4.35974393937059E-18
 [a.u.] -> [N]                                              8.23872205491840E-08
 [a.u.] -> [K]                                              3.15774647902944E+05
 [a.u.] -> [kJ/mol]                                         2.62549961709828E+03
 [a.u.] -> [kcal/mol]                                       6.27509468713739E+02
 [a.u.] -> [Pa]                                             2.94210107994716E+13
 [a.u.] -> [bar]                                            2.94210107994716E+08
 [a.u.] -> [atm]                                            2.90362800883016E+08
 [a.u.] -> [eV]                                             2.72113838565563E+01
 [a.u.] -> [Hz]                                             6.57968392072181E+15
 [a.u.] -> [1/cm] (wave numbers)                            2.19474631370540E+05
 [a.u./Bohr**2] -> [1/cm]                                   5.14048714338585E+03
 

 CELL_TOP| Volume [angstrom^3]:                                     14309.893302
 CELL_TOP| Vector a [angstrom    33.190     0.000     0.000   |a| =    33.190000
 CELL_TOP| Vector b [angstrom   -16.595    28.743     0.000   |b| =    33.190000
 CELL_TOP| Vector c [angstrom     0.000     0.000    15.000   |c| =    15.000000
 CELL_TOP| Angle (b,c), alpha [degree]:                                90.000000
 CELL_TOP| Angle (a,c), beta  [degree]:                                90.000000
 CELL_TOP| Angle (a,b), gamma [degree]:                               120.000000
 CELL_TOP| Numerically orthorhombic:                                          NO
 CELL_TOP| Periodicity                                                        XY

 CELL_UC| Volume [angstrom^3]:                                        143.098933
 CELL_UC| Vector a [angstrom]     3.319     0.000     0.000   |a| =     3.319000
 CELL_UC| Vector b [angstrom]    -1.659     2.874     0.000   |b| =     3.319000
 CELL_UC| Vector c [angstrom]     0.000     0.000    15.000   |c| =    15.000000
 CELL_UC| Angle (b,c), alpha [degree]:                                 90.000000
 CELL_UC| Angle (a,c), beta  [degree]:                                 90.000000
 CELL_UC| Angle (a,b), gamma [degree]:                                120.000000
 CELL_UC| Numerically orthorhombic:                                           NO
 CELL_UC| Periodicity                                                         XY

 GENERATE|  Preliminary Number of Bonds generated:                             0
 GENERATE|  Achieved consistency in connectivity generation.

 CELL| Volume [angstrom^3]:                                         14309.893302
 CELL| Vector a [angstrom]:      33.190     0.000     0.000   |a| =    33.190000
 CELL| Vector b [angstrom]:     -16.595    28.743     0.000   |b| =    33.190000
 CELL| Vector c [angstrom]:       0.000     0.000    15.000   |c| =    15.000000
 CELL| Angle (b,c), alpha [degree]:                                    90.000000
 CELL| Angle (a,c), beta  [degree]:                                    90.000000
 CELL| Angle (a,b), gamma [degree]:                                   120.000000
 CELL| Numerically orthorhombic:                                              NO
 CELL| Periodicity                                                            XY

 CELL_REF| Volume [angstrom^3]:                                     14309.893302
 CELL_REF| Vector a [angstrom    33.190     0.000     0.000   |a| =    33.190000
 CELL_REF| Vector b [angstrom   -16.595    28.743     0.000   |b| =    33.190000
 CELL_REF| Vector c [angstrom     0.000     0.000    15.000   |c| =    15.000000
 CELL_REF| Angle (b,c), alpha [degree]:                                90.000000
 CELL_REF| Angle (a,c), beta  [degree]:                                90.000000
 CELL_REF| Angle (a,b), gamma [degree]:                               120.000000
 CELL_REF| Numerically orthorhombic:                                          NO
 CELL_REF| Periodicity                                                        XY

 *******************************************************************************
 *******************************************************************************
 **                                                                           **
 **     #####                         ##              ##                      **
 **    ##   ##            ##          ##              ##                      **
 **   ##     ##                       ##            ######                    **
 **   ##     ##  ##   ##  ##   #####  ##  ##   ####   ##    #####    #####    **
 **   ##     ##  ##   ##  ##  ##      ## ##   ##      ##   ##   ##  ##   ##   **
 **   ##  ## ##  ##   ##  ##  ##      ####     ###    ##   ######   ######    **
 **    ##  ###   ##   ##  ##  ##      ## ##      ##   ##   ##       ##        **
 **     #######   #####   ##   #####  ##  ##  ####    ##    #####   ##        **
 **           ##                                                    ##        **
 **                                                                           **
 **                                                ... make the atoms dance   **
 **                                                                           **
 **            Copyright (C) by CP2K developers group (2000-2023)             **
 **                      J. Chem. Phys. 152, 194103 (2020)                    **
 **                                                                           **
 *******************************************************************************

 DFT| Spin restricted Kohn-Sham (RKS) calculation                            RKS
 DFT| Multiplicity                                                             1
 DFT| Number of spin states                                                    1
 DFT| Charge                                                                   0
 DFT| Self-interaction correction (SIC)                                       NO
 DFT| Cutoffs: density                                              1.000000E-10
 DFT|          gradient                                             1.000000E-10
 DFT|          tau                                                  1.000000E-10
 DFT|          cutoff_smoothing_range                               0.000000E+00
 DFT| XC density smoothing                                                  NONE
 DFT| XC derivatives                                                          PW

 FUNCTIONAL| PADE:
 FUNCTIONAL| S. Goedecker, M. Teter and J. Hutter, Phys. Rev. B 54, 1703 (1996) 


 QS| Method:                                                                 GPW
 QS| Density plane wave grid type                        NON-SPHERICAL FULLSPACE
 QS| Number of grid levels:                                                    4
 QS| Density cutoff [a.u.]:                                                250.0
 QS| Multi grid cutoff [a.u.]: 1) grid level                               250.0
 QS|                           2) grid level                                83.3
 QS|                           3) grid level                                27.8
 QS|                           4) grid level                                 9.3
 QS| Grid level progression factor:                                          3.0
 QS| Relative density cutoff [a.u.]:                                        50.0
 QS| Interaction thresholds: eps_pgf_orb:                                1.0E-40
 QS|                         eps_filter_matrix:                          0.0E+00
 QS|                         eps_core_charge:                            1.0E-42
 QS|                         eps_rho_gspace:                             1.0E-40
 QS|                         eps_rho_rspace:                             1.0E-40
 QS|                         eps_gvg_rspace:                             1.0E-20
 QS|                         eps_ppl:                                    1.0E-02
 QS|                         eps_ppnl:                                   1.0E-22


 ATOMIC KIND INFORMATION

  1. Atomic kind: W                                     Number of atoms:     100

     Orbital Basis Set                                       TZV2P-MOLOPT-SR-GTH

       Number of orbital shell sets:                                           1
       Number of orbital shells:                                              12
       Number of primitive Cartesian functions:                                6
       Number of Cartesian basis functions:                                   51
       Number of spherical basis functions:                                   42
       Norm type:                                                              2

       Normalised Cartesian orbitals:

                        Set   Shell   Orbital            Exponent    Coefficient

                          1       1    2s                3.103254       0.515452
                                                         2.893835       0.375311
                                                         1.106151      -0.709696
                                                         0.501100      -0.206820
                                                         0.214447       0.029334
                                                         0.074663      -0.017487

                          1       2    3s                3.103254      -0.875938
                                                         2.893835       0.724049
                                                         1.106151       0.004891
                                                         0.501100      -0.102265
                                                         0.214447       0.112240
                                                         0.074663       0.072808

                          1       3    4s                3.103254       1.242271
                                                         2.893835      -0.634091
                                                         1.106151      -0.295874
                                                         0.501100       0.048385
                                                         0.214447      -0.259714
                                                         0.074663       0.168416

                          1       4    5s                3.103254       1.527448
                                                         2.893835      -1.828529
                                                         1.106151       0.428933
                                                         0.501100      -0.354408
                                                         0.214447       0.262525
                                                         0.074663       0.031662

                          1       5    3px               3.103254       7.764877
                                                         2.893835      -6.474970
                                                         1.106151      -0.493909
                                                         0.501100      -0.257407
                                                         0.214447      -0.114658
                                                         0.074663       0.019801
                          1       5    3py               3.103254       7.764877
                                                         2.893835      -6.474970
                                                         1.106151      -0.493909
                                                         0.501100      -0.257407
                                                         0.214447      -0.114658
                                                         0.074663       0.019801
                          1       5    3pz               3.103254       7.764877
                                                         2.893835      -6.474970
                                                         1.106151      -0.493909
                                                         0.501100      -0.257407
                                                         0.214447      -0.114658
                                                         0.074663       0.019801

                          1       6    4px               3.103254      -0.260839
                                                         2.893835       0.341937
                                                         1.106151      -0.318669
                                                         0.501100      -0.024012
                                                         0.214447       0.078848
                                                         0.074663       0.041712
                          1       6    4py               3.103254      -0.260839
                                                         2.893835       0.341937
                                                         1.106151      -0.318669
                                                         0.501100      -0.024012
                                                         0.214447       0.078848
                                                         0.074663       0.041712
                          1       6    4pz               3.103254      -0.260839
                                                         2.893835       0.341937
                                                         1.106151      -0.318669
                                                         0.501100      -0.024012
                                                         0.214447       0.078848
                                                         0.074663       0.041712

                          1       7    5px               3.103254      -1.154222
                                                         2.893835       0.794527
                                                         1.106151       1.639214
                                                         0.501100       0.161364
                                                         0.214447      -0.219372
                                                         0.074663       0.043935
                          1       7    5py               3.103254      -1.154222
                                                         2.893835       0.794527
                                                         1.106151       1.639214
                                                         0.501100       0.161364
                                                         0.214447      -0.219372
                                                         0.074663       0.043935
                          1       7    5pz               3.103254      -1.154222
                                                         2.893835       0.794527
                                                         1.106151       1.639214
                                                         0.501100       0.161364
                                                         0.214447      -0.219372
                                                         0.074663       0.043935

                          1       8    4dx2              3.103254      -0.666177
                                                         2.893835       0.808651
                                                         1.106151       0.592574
                                                         0.501100       0.206731
                                                         0.214447       0.037281
                                                         0.074663       0.002722
                          1       8    4dxy              3.103254      -1.153853
                                                         2.893835       1.400624
                                                         1.106151       1.026368
                                                         0.501100       0.358068
                                                         0.214447       0.064572
                                                         0.074663       0.004715
                          1       8    4dxz              3.103254      -1.153853
                                                         2.893835       1.400624
                                                         1.106151       1.026368
                                                         0.501100       0.358068
                                                         0.214447       0.064572
                                                         0.074663       0.004715
                          1       8    4dy2              3.103254      -0.666177
                                                         2.893835       0.808651
                                                         1.106151       0.592574
                                                         0.501100       0.206731
                                                         0.214447       0.037281
                                                         0.074663       0.002722
                          1       8    4dyz              3.103254      -1.153853
                                                         2.893835       1.400624
                                                         1.106151       1.026368
                                                         0.501100       0.358068
                                                         0.214447       0.064572
                                                         0.074663       0.004715
                          1       8    4dz2              3.103254      -0.666177
                                                         2.893835       0.808651
                                                         1.106151       0.592574
                                                         0.501100       0.206731
                                                         0.214447       0.037281
                                                         0.074663       0.002722

                          1       9    5dx2              3.103254      -0.501640
                                                         2.893835       0.331740
                                                         1.106151      -0.610405
                                                         0.501100      -0.248731
                                                         0.214447       0.071042
                                                         0.074663       0.009968
                          1       9    5dxy              3.103254      -0.868866
                                                         2.893835       0.574590
                                                         1.106151      -1.057253
                                                         0.501100      -0.430814
                                                         0.214447       0.123048
                                                         0.074663       0.017265
                          1       9    5dxz              3.103254      -0.868866
                                                         2.893835       0.574590
                                                         1.106151      -1.057253
                                                         0.501100      -0.430814
                                                         0.214447       0.123048
                                                         0.074663       0.017265
                          1       9    5dy2              3.103254      -0.501640
                                                         2.893835       0.331740
                                                         1.106151      -0.610405
                                                         0.501100      -0.248731
                                                         0.214447       0.071042
                                                         0.074663       0.009968
                          1       9    5dyz              3.103254      -0.868866
                                                         2.893835       0.574590
                                                         1.106151      -1.057253
                                                         0.501100      -0.430814
                                                         0.214447       0.123048
                                                         0.074663       0.017265
                          1       9    5dz2              3.103254      -0.501640
                                                         2.893835       0.331740
                                                         1.106151      -0.610405
                                                         0.501100      -0.248731
                                                         0.214447       0.071042
                                                         0.074663       0.009968

                          1      10    6dx2              3.103254       7.800782
                                                         2.893835      -7.616749
                                                         1.106151       0.397584
                                                         0.501100       0.114170
                                                         0.214447      -0.090180
                                                         0.074663       0.023135
                          1      10    6dxy              3.103254      13.511351
                                                         2.893835     -13.192597
                                                         1.106151       0.688635
                                                         0.501100       0.197748
                                                         0.214447      -0.156196
                                                         0.074663       0.040072
                          1      10    6dxz              3.103254      13.511351
                                                         2.893835     -13.192597
                                                         1.106151       0.688635
                                                         0.501100       0.197748
                                                         0.214447      -0.156196
                                                         0.074663       0.040072
                          1      10    6dy2              3.103254       7.800782
                                                         2.893835      -7.616749
                                                         1.106151       0.397584
                                                         0.501100       0.114170
                                                         0.214447      -0.090180
                                                         0.074663       0.023135
                          1      10    6dyz              3.103254      13.511351
                                                         2.893835     -13.192597
                                                         1.106151       0.688635
                                                         0.501100       0.197748
                                                         0.214447      -0.156196
                                                         0.074663       0.040072
                          1      10    6dz2              3.103254       7.800782
                                                         2.893835      -7.616749
                                                         1.106151       0.397584
                                                         0.501100       0.114170
                                                         0.214447      -0.090180
                                                         0.074663       0.023135

                          1      11    5fx3              3.103254      -1.761716
                                                         2.893835       1.954462
                                                         1.106151      -0.301026
                                                         0.501100      -0.156920
                                                         0.214447      -0.019380
                                                         0.074663      -0.000647
                          1      11    5fx2y             3.103254      -3.939317
                                                         2.893835       4.370309
                                                         1.106151      -0.673114
                                                         0.501100      -0.350883
                                                         0.214447      -0.043334
                                                         0.074663      -0.001448
                          1      11    5fx2z             3.103254      -3.939317
                                                         2.893835       4.370309
                                                         1.106151      -0.673114
                                                         0.501100      -0.350883
                                                         0.214447      -0.043334
                                                         0.074663      -0.001448
                          1      11    5fxy2             3.103254      -3.939317
                                                         2.893835       4.370309
                                                         1.106151      -0.673114
                                                         0.501100      -0.350883
                                                         0.214447      -0.043334
                                                         0.074663      -0.001448
                          1      11    5fxyz             3.103254      -6.823098
                                                         2.893835       7.569597
                                                         1.106151      -1.165867
                                                         0.501100      -0.607748
                                                         0.214447      -0.075057
                                                         0.074663      -0.002508
                          1      11    5fxz2             3.103254      -3.939317
                                                         2.893835       4.370309
                                                         1.106151      -0.673114
                                                         0.501100      -0.350883
                                                         0.214447      -0.043334
                                                         0.074663      -0.001448
                          1      11    5fy3              3.103254      -1.761716
                                                         2.893835       1.954462
                                                         1.106151      -0.301026
                                                         0.501100      -0.156920
                                                         0.214447      -0.019380
                                                         0.074663      -0.000647
                          1      11    5fy2z             3.103254      -3.939317
                                                         2.893835       4.370309
                                                         1.106151      -0.673114
                                                         0.501100      -0.350883
                                                         0.214447      -0.043334
                                                         0.074663      -0.001448
                          1      11    5fyz2             3.103254      -3.939317
                                                         2.893835       4.370309
                                                         1.106151      -0.673114
                                                         0.501100      -0.350883
                                                         0.214447      -0.043334
                                                         0.074663      -0.001448
                          1      11    5fz3              3.103254      -1.761716
                                                         2.893835       1.954462
                                                         1.106151      -0.301026
                                                         0.501100      -0.156920
                                                         0.214447      -0.019380
                                                         0.074663      -0.000647

                          1      12    6fx3              3.103254       3.523652
                                                         2.893835      -3.805052
                                                         1.106151       0.562959
                                                         0.501100       0.125270
                                                         0.214447      -0.021481
                                                         0.074663      -0.002929
                          1      12    6fx2y             3.103254       7.879126
                                                         2.893835      -8.508355
                                                         1.106151       1.258815
                                                         0.501100       0.280112
                                                         0.214447      -0.048033
                                                         0.074663      -0.006549
                          1      12    6fx2z             3.103254       7.879126
                                                         2.893835      -8.508355
                                                         1.106151       1.258815
                                                         0.501100       0.280112
                                                         0.214447      -0.048033
                                                         0.074663      -0.006549
                          1      12    6fxy2             3.103254       7.879126
                                                         2.893835      -8.508355
                                                         1.106151       1.258815
                                                         0.501100       0.280112
                                                         0.214447      -0.048033
                                                         0.074663      -0.006549
                          1      12    6fxyz             3.103254      13.647047
                                                         2.893835     -14.736904
                                                         1.106151       2.180331
                                                         0.501100       0.485168
                                                         0.214447      -0.083196
                                                         0.074663      -0.011342
                          1      12    6fxz2             3.103254       7.879126
                                                         2.893835      -8.508355
                                                         1.106151       1.258815
                                                         0.501100       0.280112
                                                         0.214447      -0.048033
                                                         0.074663      -0.006549
                          1      12    6fy3              3.103254       3.523652
                                                         2.893835      -3.805052
                                                         1.106151       0.562959
                                                         0.501100       0.125270
                                                         0.214447      -0.021481
                                                         0.074663      -0.002929
                          1      12    6fy2z             3.103254       7.879126
                                                         2.893835      -8.508355
                                                         1.106151       1.258815
                                                         0.501100       0.280112
                                                         0.214447      -0.048033
                                                         0.074663      -0.006549
                          1      12    6fyz2             3.103254       7.879126
                                                         2.893835      -8.508355
                                                         1.106151       1.258815
                                                         0.501100       0.280112
                                                         0.214447      -0.048033
                                                         0.074663      -0.006549
                          1      12    6fz3              3.103254       3.523652
                                                         2.893835      -3.805052
                                                         1.106151       0.562959
                                                         0.501100       0.125270
                                                         0.214447      -0.021481
                                                         0.074663      -0.002929

     RI Auxiliary Basis Set                                   def2-SVP-RIFIT-mod

       Number of orbital shell sets:                                          28
       Number of orbital shells:                                              28
       Number of primitive Cartesian functions:                               28
       Number of Cartesian basis functions:                                  177
       Number of spherical basis functions:                                  128
       Norm type:                                                              2

       Normalised Cartesian orbitals:

                        Set   Shell   Orbital            Exponent    Coefficient

                          1       1    1s                0.208675       0.220046

                          2       1    1fx3              0.253216       0.066959
                          2       1    1fx2y             0.253216       0.149725
                          2       1    1fx2z             0.253216       0.149725
                          2       1    1fxy2             0.253216       0.149725
                          2       1    1fxyz             0.253216       0.259331
                          2       1    1fxz2             0.253216       0.149725
                          2       1    1fy3              0.253216       0.066959
                          2       1    1fy2z             0.253216       0.149725
                          2       1    1fyz2             0.253216       0.149725
                          2       1    1fz3              0.253216       0.066959

                          3       1    1gx4              0.265033       0.028874
                          3       1    1gx3y             0.265033       0.076394
                          3       1    1gx3z             0.265033       0.076394
                          3       1    1gx2y2            0.265033       0.098624
                          3       1    1gx2yz            0.265033       0.170822
                          3       1    1gx2z2            0.265033       0.098624
                          3       1    1gxy3             0.265033       0.076394
                          3       1    1gxy2z            0.265033       0.170822
                          3       1    1gxyz2            0.265033       0.170822
                          3       1    1gxz3             0.265033       0.076394
                          3       1    1gy4              0.265033       0.028874
                          3       1    1gy3z             0.265033       0.076394
                          3       1    1gy2z2            0.265033       0.098624
                          3       1    1gyz3             0.265033       0.076394
                          3       1    1gz4              0.265033       0.028874

                          4       1    1px               0.269126       0.276302
                          4       1    1py               0.269126       0.276302
                          4       1    1pz               0.269126       0.276302

                          5       1    1dx2              0.304026       0.204882
                          5       1    1dxy              0.304026       0.354866
                          5       1    1dxz              0.304026       0.354866
                          5       1    1dy2              0.304026       0.204882
                          5       1    1dyz              0.304026       0.354866
                          5       1    1dz2              0.304026       0.204882

                          6       1    1s                0.364638       0.334431

                          7       1    1fx3              0.470422       0.269806
                          7       1    1fx2y             0.470422       0.603305
                          7       1    1fx2z             0.470422       0.603305
                          7       1    1fxy2             0.470422       0.603305
                          7       1    1fxyz             0.470422       1.044954
                          7       1    1fxz2             0.470422       0.603305
                          7       1    1fy3              0.470422       0.269806
                          7       1    1fy2z             0.470422       0.603305
                          7       1    1fyz2             0.470422       0.603305
                          7       1    1fz3              0.470422       0.269806

                          8       1    1s                0.648984       0.515330

                          9       1    1dx2              0.719090       0.924230
                          9       1    1dxy              0.719090       1.600814
                          9       1    1dxz              0.719090       1.600814
                          9       1    1dy2              0.719090       0.924230
                          9       1    1dyz              0.719090       1.600814
                          9       1    1dz2              0.719090       0.924230

                         10       1    1hx5              0.872710       0.476619
                         10       1    1hx4y             0.872710       1.429858
                         10       1    1hx4z             0.872710       1.429858
                         10       1    1hx3y2            0.872710       2.184143
                         10       1    1hx3yz            0.872710       3.783047
                         10       1    1hx3z2            0.872710       2.184143
                         10       1    1hx2y3            0.872710       2.184143
                         10       1    1hx2y2z           0.872710       4.883893
                         10       1    1hx2yz2           0.872710       4.883893
                         10       1    1hx2z3            0.872710       2.184143
                         10       1    1hxy4             0.872710       1.429858
                         10       1    1hxy3z            0.872710       3.783047
                         10       1    1hxy2z2           0.872710       4.883893
                         10       1    1hxyz3            0.872710       3.783047
                         10       1    1hxz4             0.872710       1.429858
                         10       1    1hy5              0.872710       0.476619
                         10       1    1hy4z             0.872710       1.429858
                         10       1    1hy3z2            0.872710       2.184143
                         10       1    1hy2z3            0.872710       2.184143
                         10       1    1hyz4             0.872710       1.429858
                         10       1    1hz5              0.872710       0.476619

                         11       1    1gx4              0.914481       0.870294
                         11       1    1gx3y             0.914481       2.302581
                         11       1    1gx3z             0.914481       2.302581
                         11       1    1gx2y2            0.914481       2.972619
                         11       1    1gx2yz            0.914481       5.148727
                         11       1    1gx2z2            0.914481       2.972619
                         11       1    1gxy3             0.914481       2.302581
                         11       1    1gxy2z            0.914481       5.148727
                         11       1    1gxyz2            0.914481       5.148727
                         11       1    1gxz3             0.914481       2.302581
                         11       1    1gy4              0.914481       0.870294
                         11       1    1gy3z             0.914481       2.302581
                         11       1    1gy2z2            0.914481       2.972619
                         11       1    1gyz3             0.914481       2.302581
                         11       1    1gz4              0.914481       0.870294

                         12       1    1px               0.967490       1.367723
                         12       1    1py               0.967490       1.367723
                         12       1    1pz               0.967490       1.367723

                         13       1    1dx2              1.179750       2.198072
                         13       1    1dxy              1.179750       3.807173
                         13       1    1dxz              1.179750       3.807173
                         13       1    1dy2              1.179750       2.198072
                         13       1    1dyz              1.179750       3.807173
                         13       1    1dz2              1.179750       2.198072

                         14       1    1fx3              1.281070       2.570357
                         14       1    1fx2y             1.281070       5.747492
                         14       1    1fx2z             1.281070       5.747492
                         14       1    1fxy2             1.281070       5.747492
                         14       1    1fxyz             1.281070       9.954948
                         14       1    1fxz2             1.281070       5.747492
                         14       1    1fy3              1.281070       2.570357
                         14       1    1fy2z             1.281070       5.747492
                         14       1    1fyz2             1.281070       5.747492
                         14       1    1fz3              1.281070       2.570357

                         15       1    1s                1.466370       0.949714

                         16       1    1gx4              1.748350       5.172059
                         16       1    1gx3y             1.748350      13.683982
                         16       1    1gx3z             1.748350      13.683982
                         16       1    1gx2y2            1.748350      17.665944
                         16       1    1gx2yz            1.748350      30.598313
                         16       1    1gx2z2            1.748350      17.665944
                         16       1    1gxy3             1.748350      13.683982
                         16       1    1gxy2z            1.748350      30.598313
                         16       1    1gxyz2            1.748350      30.598313
                         16       1    1gxz3             1.748350      13.683982
                         16       1    1gy4              1.748350       5.172059
                         16       1    1gy3z             1.748350      13.683982
                         16       1    1gy2z2            1.748350      17.665944
                         16       1    1gyz3             1.748350      13.683982
                         16       1    1gz4              1.748350       5.172059

                         17       1    1px               1.939290       3.262072
                         17       1    1py               1.939290       3.262072
                         17       1    1pz               1.939290       3.262072

                         18       1    1s                2.101910       1.244144

                         19       1    1dx2              2.484170       8.090526
                         19       1    1dxy              2.484170      14.013202
                         19       1    1dxz              2.484170      14.013202
                         19       1    1dy2              2.484170       8.090526
                         19       1    1dyz              2.484170      14.013202
                         19       1    1dz2              2.484170       8.090526

                         20       1    1fx3              2.625400      12.916483
                         20       1    1fx2y             2.625400      28.882134
                         20       1    1fx2z             2.625400      28.882134
                         20       1    1fxy2             2.625400      28.882134
                         20       1    1fxyz             2.625400      50.025324
                         20       1    1fxz2             2.625400      28.882134
                         20       1    1fy3              2.625400      12.916483
                         20       1    1fy2z             2.625400      28.882134
                         20       1    1fyz2             2.625400      28.882134
                         20       1    1fz3              2.625400      12.916483

                         21       1    1px               2.934310       5.474224
                         21       1    1py               2.934310       5.474224
                         21       1    1pz               2.934310       5.474224

                         22       1    1s                3.287500       1.740041

                         23       1    1px               4.122050       8.372047
                         23       1    1py               4.122050       8.372047
                         23       1    1pz               4.122050       8.372047

                         24       1    1dx2              4.561580      23.434799
                         24       1    1dxy              4.561580      40.590262
                         24       1    1dxz              4.561580      40.590262
                         24       1    1dy2              4.561580      23.434799
                         24       1    1dyz              4.561580      40.590262
                         24       1    1dz2              4.561580      23.434799

                         25       1    1fx3              5.428920      66.230753
                         25       1    1fx2y             5.428920     148.096466
                         25       1    1fx2z             5.428920     148.096466
                         25       1    1fxy2             5.428920     148.096466
                         25       1    1fxyz             5.428920     256.510604
                         25       1    1fxz2             5.428920     148.096466
                         25       1    1fy3              5.428920      66.230753
                         25       1    1fy2z             5.428920     148.096466
                         25       1    1fyz2             5.428920     148.096466
                         25       1    1fz3              5.428920      66.230753

                         26       1    1s                5.457930       2.544961

                         27       1    1dx2              7.997160      62.596072
                         27       1    1dxy              7.997160     108.419577
                         27       1    1dxz              7.997160     108.419577
                         27       1    1dy2              7.997160      62.596072
                         27       1    1dyz              7.997160     108.419577
                         27       1    1dz2              7.997160      62.596072

                         28       1    1px               9.577750      24.017039
                         28       1    1py               9.577750      24.017039
                         28       1    1pz               9.577750      24.017039

       Atomic covalent radius [Angstrom]:                                  1.300

       Atomic van der Waals radius [Angstrom]:                             1.670

     GTH Potential information for                                  GTH-PADE-q14

       Description:                       Goedecker-Teter-Hutter pseudopotential
                                           Goedecker et al., PRB 54, 1703 (1996)
                                          Hartwigsen et al., PRB 58, 3641 (1998)
                                                      Krack, TCA 114, 145 (2005)

       Gaussian exponent of the core charge distribution:               1.714678
       Electronic configuration (s p d ...):                           4   6   4

       Parameters of the local part of the GTH pseudopotential:

                          rloc        C1          C2          C3          C4
                        0.540000    4.800251    0.901544

       Parameters of the non-local part of the GTH pseudopotential:

                   l      r(l)      h(i,j,l)

                   0    0.418570    2.692204    2.332557    0.297239
                                    2.332557   -6.022638   -0.767467
                                    0.297239   -0.767467    1.218316
                   1    0.449555   -0.702084    1.036024
                                    1.036024   -2.451680
                   2    0.399602    1.177436    2.448917
                                    2.448917   -5.553621

  2. Atomic kind: Se                                    Number of atoms:     200

     Orbital Basis Set                                       TZV2P-MOLOPT-SR-GTH

       Number of orbital shell sets:                                           1
       Number of orbital shells:                                               8
       Number of primitive Cartesian functions:                                4
       Number of Cartesian basis functions:                                   24
       Number of spherical basis functions:                                   22
       Norm type:                                                              2

       Normalised Cartesian orbitals:

                        Set   Shell   Orbital            Exponent    Coefficient

                          1       1    2s                1.465689       0.494570
                                                         1.029752      -0.180977
                                                         0.303575      -0.216980
                                                         0.107173      -0.053368

                          1       2    3s                1.465689       0.532885
                                                         1.029752      -0.330782
                                                         0.303575       0.006665
                                                         0.107173       0.129622

                          1       3    4s                1.465689       1.121876
                                                         1.029752      -0.920455
                                                         0.303575       0.570550
                                                         0.107173      -0.176214

                          1       4    3px               1.465689       0.107882
                                                         1.029752      -0.079700
                                                         0.303575      -0.126036
                                                         0.107173      -0.058572
                          1       4    3py               1.465689       0.107882
                                                         1.029752      -0.079700
                                                         0.303575      -0.126036
                                                         0.107173      -0.058572
                          1       4    3pz               1.465689       0.107882
                                                         1.029752      -0.079700
                                                         0.303575      -0.126036
                                                         0.107173      -0.058572

                          1       5    4px               1.465689       1.547982
                                                         1.029752      -1.230554
                                                         0.303575      -0.365142
                                                         0.107173       0.068159
                          1       5    4py               1.465689       1.547982
                                                         1.029752      -1.230554
                                                         0.303575      -0.365142
                                                         0.107173       0.068159
                          1       5    4pz               1.465689       1.547982
                                                         1.029752      -1.230554
                                                         0.303575      -0.365142
                                                         0.107173       0.068159

                          1       6    5px               1.465689       3.733852
                                                         1.029752      -2.632709
                                                         0.303575       0.559576
                                                         0.107173      -0.066707
                          1       6    5py               1.465689       3.733852
                                                         1.029752      -2.632709
                                                         0.303575       0.559576
                                                         0.107173      -0.066707
                          1       6    5pz               1.465689       3.733852
                                                         1.029752      -2.632709
                                                         0.303575       0.559576
                                                         0.107173      -0.066707

                          1       7    4dx2              1.465689       0.307774
                                                         1.029752      -0.370040
                                                         0.303575      -0.112586
                                                         0.107173      -0.015926
                          1       7    4dxy              1.465689       0.533081
                                                         1.029752      -0.640929
                                                         0.303575      -0.195005
                                                         0.107173      -0.027585
                          1       7    4dxz              1.465689       0.533081
                                                         1.029752      -0.640929
                                                         0.303575      -0.195005
                                                         0.107173      -0.027585
                          1       7    4dy2              1.465689       0.307774
                                                         1.029752      -0.370040
                                                         0.303575      -0.112586
                                                         0.107173      -0.015926
                          1       7    4dyz              1.465689       0.533081
                                                         1.029752      -0.640929
                                                         0.303575      -0.195005
                                                         0.107173      -0.027585
                          1       7    4dz2              1.465689       0.307774
                                                         1.029752      -0.370040
                                                         0.303575      -0.112586
                                                         0.107173      -0.015926

                          1       8    5dx2              1.465689      -0.987464
                                                         1.029752       1.348321
                                                         0.303575       0.106974
                                                         0.107173      -0.033181
                          1       8    5dxy              1.465689      -1.710337
                                                         1.029752       2.335360
                                                         0.303575       0.185284
                                                         0.107173      -0.057471
                          1       8    5dxz              1.465689      -1.710337
                                                         1.029752       2.335360
                                                         0.303575       0.185284
                                                         0.107173      -0.057471
                          1       8    5dy2              1.465689      -0.987464
                                                         1.029752       1.348321
                                                         0.303575       0.106974
                                                         0.107173      -0.033181
                          1       8    5dyz              1.465689      -1.710337
                                                         1.029752       2.335360
                                                         0.303575       0.185284
                                                         0.107173      -0.057471
                          1       8    5dz2              1.465689      -0.987464
                                                         1.029752       1.348321
                                                         0.303575       0.106974
                                                         0.107173      -0.033181

     RI Auxiliary Basis Set                                   def2-SVP-RIFIT-mod

       Number of orbital shell sets:                                          21
       Number of orbital shells:                                              21
       Number of primitive Cartesian functions:                               21
       Number of Cartesian basis functions:                                  120
       Number of spherical basis functions:                                   91
       Norm type:                                                              2

       Normalised Cartesian orbitals:

                        Set   Shell   Orbital            Exponent    Coefficient

                          1       1    1s                0.198146       0.211665

                          2       1    1dx2              0.205873       0.103564
                          2       1    1dxy              0.205873       0.179379
                          2       1    1dxz              0.205873       0.179379
                          2       1    1dy2              0.205873       0.103564
                          2       1    1dyz              0.205873       0.179379
                          2       1    1dz2              0.205873       0.103564

                          3       1    1px               0.271607       0.279490
                          3       1    1py               0.271607       0.279490
                          3       1    1pz               0.271607       0.279490

                          4       1    1fx3              0.330155       0.121638
                          4       1    1fx2y             0.330155       0.271990
                          4       1    1fx2z             0.330155       0.271990
                          4       1    1fxy2             0.330155       0.271990
                          4       1    1fxyz             0.330155       0.471101
                          4       1    1fxz2             0.330155       0.271990
                          4       1    1fy3              0.330155       0.121638
                          4       1    1fy2z             0.330155       0.271990
                          4       1    1fyz2             0.330155       0.271990
                          4       1    1fz3              0.330155       0.121638

                          5       1    1s                0.368618       0.337165

                          6       1    1dx2              0.492940       0.477308
                          6       1    1dxy              0.492940       0.826723
                          6       1    1dxz              0.492940       0.826723
                          6       1    1dy2              0.492940       0.477308
                          6       1    1dyz              0.492940       0.826723
                          6       1    1dz2              0.492940       0.477308

                          7       1    1px               0.522961       0.633908
                          7       1    1py               0.522961       0.633908
                          7       1    1pz               0.522961       0.633908

                          8       1    1s                0.572587       0.469128

                          9       1    1fx3              0.711060       0.683508
                          9       1    1fx2y             0.711060       1.528371
                          9       1    1fx2z             0.711060       1.528371
                          9       1    1fxy2             0.711060       1.528371
                          9       1    1fxyz             0.711060       2.647216
                          9       1    1fxz2             0.711060       1.528371
                          9       1    1fy3              0.711060       0.683508
                          9       1    1fy2z             0.711060       1.528371
                          9       1    1fyz2             0.711060       1.528371
                          9       1    1fz3              0.711060       0.683508

                         10       1    1dx2              0.761541       1.021817
                         10       1    1dxy              0.761541       1.769839
                         10       1    1dxz              0.761541       1.769839
                         10       1    1dy2              0.761541       1.021817
                         10       1    1dyz              0.761541       1.769839
                         10       1    1dz2              0.761541       1.021817

                         11       1    1gx4              0.762837       0.528594
                         11       1    1gx3y             0.762837       1.398528
                         11       1    1gx3z             0.762837       1.398528
                         11       1    1gx2y2            0.762837       1.805491
                         11       1    1gx2yz            0.762837       3.127203
                         11       1    1gx2z2            0.762837       1.805491
                         11       1    1gxy3             0.762837       1.398528
                         11       1    1gxy2z            0.762837       3.127203
                         11       1    1gxyz2            0.762837       3.127203
                         11       1    1gxz3             0.762837       1.398528
                         11       1    1gy4              0.762837       0.528594
                         11       1    1gy3z             0.762837       1.398528
                         11       1    1gy2z2            0.762837       1.805491
                         11       1    1gyz3             0.762837       1.398528
                         11       1    1gz4              0.762837       0.528594

                         12       1    1px               1.002555       1.429965
                         12       1    1py               1.002555       1.429965
                         12       1    1pz               1.002555       1.429965

                         13       1    1dx2              1.339632       2.745579
                         13       1    1dxy              1.339632       4.755483
                         13       1    1dxz              1.339632       4.755483
                         13       1    1dy2              1.339632       2.745579
                         13       1    1dyz              1.339632       4.755483
                         13       1    1dz2              1.339632       2.745579

                         14       1    1fx3              1.492646       3.625412
                         14       1    1fx2y             1.492646       8.106668
                         14       1    1fx2z             1.492646       8.106668
                         14       1    1fxy2             1.492646       8.106668
                         14       1    1fxyz             1.492646      14.041160
                         14       1    1fxz2             1.492646       8.106668
                         14       1    1fy3              1.492646       3.625412
                         14       1    1fy2z             1.492646       8.106668
                         14       1    1fyz2             1.492646       8.106668
                         14       1    1fz3              1.492646       3.625412

                         15       1    1px               1.705131       2.777392
                         15       1    1py               1.705131       2.777392
                         15       1    1pz               1.705131       2.777392

                         16       1    1s                2.077977       1.233504

                         17       1    1fx3              2.732672      14.134362
                         17       1    1fx2y             2.732672      31.605393
                         17       1    1fx2z             2.732672      31.605393
                         17       1    1fxy2             2.732672      31.605393
                         17       1    1fxyz             2.732672      54.742147
                         17       1    1fxz2             2.732672      31.605393
                         17       1    1fy3              2.732672      14.134362
                         17       1    1fy2z             2.732672      31.605393
                         17       1    1fyz2             2.732672      31.605393
                         17       1    1fz3              2.732672      14.134362

                         18       1    1gx4              2.959815      21.999507
                         18       1    1gx3y             2.959815      58.205224
                         18       1    1gx3z             2.959815      58.205224
                         18       1    1gx2y2            2.959815      75.142621
                         18       1    1gx2yz            2.959815     130.150837
                         18       1    1gx2z2            2.959815      75.142621
                         18       1    1gxy3             2.959815      58.205224
                         18       1    1gxy2z            2.959815     130.150837
                         18       1    1gxyz2            2.959815     130.150837
                         18       1    1gxz3             2.959815      58.205224
                         18       1    1gy4              2.959815      21.999507
                         18       1    1gy3z             2.959815      58.205224
                         18       1    1gy2z2            2.959815      75.142621
                         18       1    1gyz3             2.959815      58.205224
                         18       1    1gz4              2.959815      21.999507

                         19       1    1dx2              3.469869      14.519688
                         19       1    1dxy              3.469869      25.148837
                         19       1    1dxz              3.469869      25.148837
                         19       1    1dy2              3.469869      14.519688
                         19       1    1dyz              3.469869      25.148837
                         19       1    1dz2              3.469869      14.519688

                         20       1    1px               3.832640       7.643857
                         20       1    1py               3.832640       7.643857
                         20       1    1pz               3.832640       7.643857

                         21       1    1s                4.797700       2.310388

       Atomic covalent radius [Angstrom]:                                  1.160

       Atomic van der Waals radius [Angstrom]:                             1.900

     GTH Potential information for                                   GTH-PADE-q6

       Description:                       Goedecker-Teter-Hutter pseudopotential
                                           Goedecker et al., PRB 54, 1703 (1996)
                                          Hartwigsen et al., PRB 58, 3641 (1998)
                                                      Krack, TCA 114, 145 (2005)

       Gaussian exponent of the core charge distribution:               1.922338
       Electronic configuration (s p d ...):                               2   4

       Parameters of the local part of the GTH pseudopotential:

                          rloc        C1          C2          C3          C4
                        0.510000

       Parameters of the non-local part of the GTH pseudopotential:

                   l      r(l)      h(i,j,l)

                   0    0.432531    5.145131   -0.794740   -0.334051
                                   -0.794740    2.052009    0.862517
                                   -0.334051    0.862517   -1.369203
                   1    0.472473    2.858806    0.249604
                                    0.249604   -0.590670
                   2    0.613420    0.434829


 MOLECULE KIND INFORMATION


 All atoms are their own molecule, skipping detailed information


 TOTAL NUMBERS AND MAXIMUM NUMBERS

  Total number of            - Atomic kinds:                                   2
                             - Atoms:                                        300
                             - Shell sets:                                   300
                             - Shells:                                      2800
                             - Primitive Cartesian functions:               1400
                             - Cartesian basis functions:                   9900
                             - Spherical basis functions:                   8600

  Maximum angular momentum of- Orbital basis functions:                        3
                             - Local part of the GTH pseudopotential:          2
                             - Non-local part of the GTH pseudopotential:      4


 MODULE QUICKSTEP: ATOMIC COORDINATES IN ANGSTROM

   Atom Kind Element         X             Y             Z       Z(eff)     Mass
      1    1 W    74      0.000000      0.000000      2.179276  14.0000 183.8400
      2    2 Se   34      1.659503      0.958115      3.858553   6.0000  78.9600
      3    2 Se   34      1.659503      0.958115      0.500000   6.0000  78.9600
      4    1 W    74      3.319000      0.000000      2.179276  14.0000 183.8400
      5    2 Se   34      4.978503      0.958115      3.858553   6.0000  78.9600
[...]
 matmuls inhomo. stacks                    115200     100.0%      0.0%      0.0%
 matmuls total                           42288450       0.3%     99.7%      0.0%
 number of processed stacks               4710405       2.4%     97.6%      0.0%
 average stack size                                     1.0       9.2       0.0
 marketing flops                   887.520100E+09
 -------------------------------------------------------------------------------
 # multiplications                              6
 max memory usage/rank             928.600064E+06
 # max total images/rank                       19
 # max 3D layers                                1
 # MPI messages exchanged                 6712320
 MPI messages size (bytes):
  total size                       313.472057E+09
  min size                           0.000000E+00
  max size                         268.128000E+03
  average size                      46.701000E+03
 MPI breakdown and total messages size (bytes):
             size <=      128             2648733                        0
       128 < size <=     8192              214833               1249318400
      8192 < size <=    32768             1049696              24861178752
     32768 < size <=   131072             2024383             157990872448
    131072 < size <=  4194304              774675             129370694400
   4194304 < size <= 16777216                   0                        0
  16777216 < size                               0                        0
 -------------------------------------------------------------------------------

 *** WARNING in dbcsr_mm.F:290 :: Using a non-square number of MPI ranks   ***
 *** might lead to poor performance. Used ranks: 1520 Suggested: 1521 3025 ***

 -------------------------------------------------------------------------------
 -                                                                             -
 -                      DBCSR MESSAGE PASSING PERFORMANCE                      -
 -                                                                             -
 -------------------------------------------------------------------------------
 ROUTINE             CALLS      AVE VOLUME [Bytes]
 MP_Bcast              523                     12.
 MP_Allreduce         1093                     25.
 MP_Alltoall         99103                6313647.
 MP_ISend             8918                  30234.
 MP_IRecv             8910                  29956.
 -------------------------------------------------------------------------------

 -------------------------------------------------------------------------------
 -                                                                             -
 -                                DBM STATISTICS                               -
 -                                                                             -
 -------------------------------------------------------------------------------
    M  x    N  x    K                                          COUNT     PERCENT
   ??  x >999  x   ??                                     6263586680       0.24%
   ??  x    ?  x  ???                                    83340814927       3.24%
   ??  x   ??  x  ???                                   229250354407       8.90%
    ?  x  ???  x   ??                                   108191462196       4.20%
   ??  x   ??  x >999                                     5019983050       0.19%
  ???  x   ??  x   ??                                   198223918900       7.70%
   ??  x    ?  x >999                                    17808768610       0.69%
   ??  x  ???  x    ?                                    99376997770       3.86%
    ?  x    ?  x    ?                                   850926570801      33.05%
    ?  x   ??  x >999                                    17625870732       0.68%
    ?  x   ??  x  ???                                    81969827645       3.18%
   ??  x >999  x    ?                                    21607584890       0.84%
    ?  x >999  x    ?                                    80986346706       3.15%
    ?  x    ?  x  ???                                   286918031359      11.14%
    ?  x  ???  x    ?                                   372475262234      14.47%
   ??  x  ???  x   ??                                    28854350176       1.12%
    ?  x    ?  x >999                                    62290730478       2.42%
    ?  x >999  x   ??                                    23485215210       0.91%
 -------------------------------------------------------------------------------

 -------------------------------------------------------------------------------
 -                                                                             -
 -                                GRID STATISTICS                              -
 -                                                                             -
 -------------------------------------------------------------------------------
 LP    KERNEL             BACKEND                              COUNT     PERCENT
 5     collocate general  REF                                 977400      18.26%
 5     integrate general  REF                                 977400      18.26%
 0     collocate general  REF                                 912000      17.04%
 4     collocate general  REF                                 631800      11.81%
 4     integrate general  REF                                 631800      11.81%
 0     integrate general  REF                                 456000       8.52%
 6     collocate general  REF                                 382500       7.15%
 6     integrate general  REF                                 382500       7.15%
 -------------------------------------------------------------------------------

 MEMORY| Estimated peak process memory [MiB]                               13122

 -------------------------------------------------------------------------------
 ----                             MULTIGRID INFO                            ----
 -------------------------------------------------------------------------------
 count for grid        1:       35222980          cutoff [a.u.]          250.00
 count for grid        2:       22386480          cutoff [a.u.]           83.33
 count for grid        3:        7891580          cutoff [a.u.]           27.78
 count for grid        4:        2270180          cutoff [a.u.]            9.26
 total gridlevel count  :       67771220

 -------------------------------------------------------------------------------
 -                                                                             -
 -                         MESSAGE PASSING PERFORMANCE                         -
 -                                                                             -
 -------------------------------------------------------------------------------

 ROUTINE             CALLS      AVE VOLUME [Bytes]
 MP_Group            10320
 MP_Bcast            19257                 422147.
 MP_Allreduce        18558                  15210.
 MP_Sync             14851
 MP_Alltoall          6688
 MP_SendRecv         13671                  21952.
 MP_ISendRecv        13671                  21952.
 MP_Wait             26263
 MP_comm_split        6106
 MP_ISend          1464294                 232204.
 MP_IRecv          1490620                 259635.
 -------------------------------------------------------------------------------


 -------------------------------------------------------------------------------
 -                                                                             -
 -                           R E F E R E N C E S                               -
 -                                                                             -
 -------------------------------------------------------------------------------
 
 CP2K version 2023.1 (Development Version), the CP2K developers group (2023).
 CP2K is freely available from https://www.cp2k.org/ .

 Kuehne,Thomas D.; Iannuzzi,Marcella; Del Ben,Mauro;
 Rybkin,Vladimir V.; Seewald,Patrick; Stein,Frederick; Laino,Teodoro;
 Khaliullin,Rustam Z.; Schuett,Ole; Schiffmann,Florian; Golze,Dorothea;
 Wilhelm,Jan; Chulkov,Sergey; Bani-Hashemian,Mohammad Hossein;
 Weber,Valery; Borstnik,Urban; Taillefumier,Mathieu;
 Jakobovits,Alice Shoshana; Lazzaro,Alfio; Pabst,Hans; Mueller,Tiziano;
 Schade,Robert; Guidon,Manuel; Andermatt,Samuel; Holmberg,Nico;
 Schenter,Gregory K.; Hehn,Anna; Bussy,Augustin; Belleflamme,Fabian;
 Tabacchi,Gloria; Gloess,Andreas; Lass,Michael; Bethune,Iain;
 Mundy,Christopher J.; Plessl,Christian; Watkins,Matt;
 VandeVondele,Joost; Krack,Matthias; Hutter,Juerg. 
 The Journal of Chemical Physics, 152 (19), (2020). 
 CP2K: An electronic structure and molecular dynamics software package -
 Quickstep: Efficient and accurate electronic structure calculations.
 https://doi.org/10.1063/5.0007045

 Wilhelm, J; Golze, D; Talirz, L; Hutter, J; Pignedoli, CA. 
 JOURNAL OF PHYSICAL CHEMISTRY LETTERS, 9, 306-312 (2018). 
 Toward GW calculations on thousands of atoms.
 https://doi.org/10.1021/acs.jpclett.7b02740

 Wilhelm, J; Hutter, J. PHYSICAL REVIEW B, 95, 235123 (2017). 
 Periodic GW calculations in the Gaussian and plane-waves scheme.
 https://doi.org/10.1103/PhysRevB.95.235123

 Wilhelm, J; Del Ben, M; Hutter, J. 
 JOURNAL OF CHEMICAL THEORY AND COMPUTATION, 12, 3623-3635 (2016). 
 GW in the Gaussian and plane waves scheme with application to linear acenes.
 https://doi.org/10.1021/acs.jctc.6b00380

 Wilhelm, J; Seewald, P; Del Ben, M; Hutter, J. 
 JOURNAL OF CHEMICAL THEORY AND COMPUTATION, 12, 5851-5859 (2016). 
 Large-Scale Cubic-Scaling Random Phase Approximation Correlation.
 https://doi.org/10.1021/acs.jctc.6b00840

 Schuett, Ole; Messmer, Peter; Hutter, Juerg; VandeVondele, Joost. 
 Electronic Structure Calculations on Graphics Processing Units, John
 Wiley & Sons, Ltd, 173-190 (2016). 
 GPU-Accelerated Sparse Matrix-Matrix Multiplication for
 Linear Scaling Density Functional Theory.
 https://doi.org/10.1002/9781118670712.ch8

 Heinecke, A; Henry, G; Hutchinson, M; Pabst, H. 
 Proceedings of Intl. Supercomputing Conference, 981-991 (2016). 
 LIBXSMM: Accelerating Small Matrix Multiplications
 by Runtime Code Generation.
 https://doi.org/10.1109/SC.2016.83

 Del Ben, M; Schuett, O; Wentz, T; Messmer, P; Hutter, J;
 VandeVondele, J. 
 COMPUTER PHYSICS COMMUNICATIONS, 187, 120-129 (2015). 
 Enabling simulation at the fifth rung of DFT: Large scale RPA
 calculations with excellent time to solution.
 https://doi.org/10.1016/j.cpc.2014.10.021

 Borstnik, U; VandeVondele, J; Weber, V; Hutter, J. 
 PARALLEL COMPUTING, 40 (5-6), 47-58 (2014). 
 Sparse matrix multiplication: The distributed block-compressed sparse
 row library.
 https://doi.org/10.1016/j.parco.2014.03.012

 Hutter, J; Iannuzzi, M; Schiffmann, F; VandeVondele, J. 
 WIREs Comput Mol Sci., 4 (1), 15-25 (2014). 
 CP2K: atomistic simulations of condensed matter systems.
 https://doi.org/10.1002/wcms.1159

 Marek, A; Blum, V; Johanni, R; Havu, V; Lang, B; Auckenthaler, T;
 Heinecke, A; Bungartz, H; Lederer, H. 
 Journal of Physics: Condensed Matter, 26 (21), (2014). 
 The ELPA library: scalable parallel eigenvalue solutions for
 electronic structure
 theory and computational science.
 https://doi.org/10.1088/0953-8984/26/21/213201

 Del Ben, M; Hutter, J; VandeVondele, J. 
 JOURNAL OF CHEMICAL THEORY AND COMPUTATION, 9 (6), 2654-2671 (2013). 
 Electron Correlation in the Condensed Phase from a Resolution of
 Identity Approach Based on the Gaussian and Plane Waves Scheme.
 https://doi.org/10.1021/ct4002202

 Del Ben, M; Hutter, J; VandeVondele, J. 
 JOURNAL OF CHEMICAL THEORY AND COMPUTATION, 8 (11), 4177-4188 (2012). 
 Second-Order Moller-Plesset Perturbation Theory in the Condensed Phase:
 An Efficient and Massively Parallel Gaussian and Plane Waves Approach.
 https://doi.org/10.1021/ct300531w

 VandeVondele, J; Hutter, J. 
 JOURNAL OF CHEMICAL PHYSICS, 127 (11), 114105 (2007). 
 Gaussian basis sets for accurate calculations on molecular systems in
 gas and condensed phases.
 https://doi.org/10.1063/1.2770708

 Krack, M. 
 THEORETICAL CHEMISTRY ACCOUNTS, 114 (1-3), 145-152 (2005). 
 Pseudopotentials for H to Kr optimized for gradient-corrected
 exchange-correlation functionals.
 https://doi.org/10.1007/s00214-005-0655-y

 VandeVondele, J; Krack, M; Mohamed, F; Parrinello, M; Chassaing, T;
 Hutter, J. COMPUTER PHYSICS COMMUNICATIONS, 167 (2), 103-128 (2005). 
 QUICKSTEP: Fast and accurate density functional calculations using a
 mixed Gaussian and plane waves approach.
 https://doi.org/10.1016/j.cpc.2004.12.014

 Frigo, M; Johnson, SG. 
 PROCEEDINGS OF THE IEEE, 93 (2), 216-231 (2005). 
 The design and implementation of FFTW3.
 https://doi.org/10.1109/JPROC.2004.840301

 Hartwigsen, C; Goedecker, S; Hutter, J. 
 PHYSICAL REVIEW B, 58 (7), 3641-3662 (1998). 
 Relativistic separable dual-space Gaussian pseudopotentials from H to Rn.
 https://doi.org/10.1103/PhysRevB.58.3641

 Lippert, G; Hutter, J; Parrinello, M. 
 MOLECULAR PHYSICS, 92 (3), 477-487 (1997). 
 A hybrid Gaussian and plane wave density functional scheme.
 https://doi.org/10.1080/002689797170220

 Goedecker, S; Teter, M; Hutter, J. 
 PHYSICAL REVIEW B, 54 (3), 1703-1710 (1996). 
 Separable dual-space Gaussian pseudopotentials.
 https://doi.org/10.1103/PhysRevB.54.1703


 -------------------------------------------------------------------------------
 -                                                                             -
 -                                T I M I N G                                  -
 -                                                                             -
 -------------------------------------------------------------------------------
 SUBROUTINE                       CALLS  ASD         SELF TIME        TOTAL TIME
                                MAXIMUM       AVERAGE  MAXIMUM  AVERAGE  MAXIMUM
 CP2K                                 1  1.0     0.02     0.11 22664.61 22664.76
 qs_energies                          1  2.0     0.00     0.02 22663.51 22663.66
 mp2_main                             1  3.0     0.00     0.01 22655.25 22655.40
 mp2_gpw_main                         1  4.0     0.00     0.01 22653.89 22654.04
 rpa_ri_compute_en                    1  5.0     0.00     0.00 20647.07 20647.20
 rpa_num_int                          1  6.0     0.00     0.23 20310.78 20310.92
 dbt_total                         3250  9.8     0.02     0.03 10292.08 10292.15
 dbt_contract                      1360 11.0     0.09     0.11  9752.08  9754.85
 dbt_tas_total                     2112 13.4    18.59    23.90  9657.99  9658.05
 dbt_tas_multiply                  1891 12.8     0.01     0.01  9653.73  9653.79
 rpa_num_int_RPA_matrix_operati      10  7.0     0.00     0.00  9266.28  9266.34
 invert_eps_compute_W_and_Erpa_      10  8.0     0.00     0.00  9266.26  9266.32
 dbt_tas_dbm                       1891 14.8     0.01     0.01  8393.66  8393.72
 dbm_multiply                      1891 16.8  6147.83  7294.64  6147.83  7294.64
 cp_cfm_power                       312  9.7     0.59     1.73  6746.46  6747.54
 compute_Q_kp_RPA                   260  9.0     0.38     2.01  6653.12  6653.75
 cp_cfm_heevd                       441 10.2  6202.04  6204.95  6202.04  6204.95
 compute_QP_energies                  1  7.0     0.00     0.01  5630.03  5630.06
 compute_self_energy_cubic_gw_k       1  8.0     0.15     0.17  5629.83  5629.87
 compute_mat_P_omega                  1  7.0     0.00     0.00  5409.91  5409.95
 compute_mat_P_omega_contract        10  8.0     5.85     6.56  5396.20  5396.28
 dbt_tas_mm_2                       513 15.0     0.00     0.00  4946.59  4946.63
 parallel_gemm_cfm                 4194 10.2     0.01     0.02  4150.07  4260.60
 parallel_gemm_cfm_cosma           4194 11.2  4150.05  4260.59  4150.05  4260.59
 compute_mat_P_omega_calc_P_t       160  9.0     0.00     0.00  3845.68  3845.70
 mp_sync                          14851 12.7  2445.79  3744.92  2445.79  3744.92
 tensor_operation_3c_W              176  9.0     0.00     0.00  2580.54  2581.04
 contract_to_self_energy            352  9.0     0.01     0.01  2339.63  2340.42
 compute_Wc_real_space_tau_GW       260  9.0     0.00     0.00  2141.56  2142.47
 mp2_ri_gpw_compute_in                1  5.0     0.00     0.05  2006.80  2006.81
 dbt_tas_mm_3N                      352 16.5     0.00     0.00  1802.03  1980.15
 get_2c_integrals                     1  6.0     0.00     0.00  1964.53  1964.54
 compute_Wc_real_space_tau_GW_3     260 10.0     0.00     0.00  1434.57  1539.55
 inversion_of_M_and_mult_with_c       1  7.0     0.00     0.00  1462.13  1462.15
 compute_Wc_real_space_tau_GW_2     260 10.0     0.06     0.07   687.58   956.61
 mp_waitall_2                      9277 16.7   852.03   935.35   852.03   935.35
 compute_mat_P_omega_calc_M_occ     160  9.0     5.88     6.59   755.57   755.57
 trafo_to_mo_and_kpoints             21  9.0     0.30     0.37   666.90   666.90
 copy_dbcsr_to_fm                  3836 10.5     0.07     0.07   374.13   574.60
 cp_cfm_cholesky_invert             260 11.0   571.20   571.80   571.20   571.80
 mp_alltoall_i22                  15269 12.7   320.92   549.49   320.92   549.49
 dbt_tas_communicate_buffer        3426 17.3     0.67     0.91   513.73   537.48
 dbcsr_desymmetrize_deep           3896 11.4     0.48     1.38   323.81   524.34
 dbt_tas_replicate                 1625 15.0    36.82    78.24   505.87   523.32
 dbt_copy                          1619 10.8     0.09     0.10   468.40   489.19
 compute_V_by_lattice_sum             1  7.0     0.00     0.00   489.05   489.06
 dbt_reshape                       1597 11.9    52.09    56.84   465.65   486.46
 build_2c_coulomb_matrix_kp           2  8.0     0.00     0.00   198.41   486.34
 lattice_sum                          2  9.0     6.80    18.89   198.41   486.33
 compute_v_transl                 13312 10.0   190.02   463.52   191.46   467.23
 dbt_tas_replicate_communicate_    1259 16.3     0.12     0.19   444.50   463.09
 compute_mat_P_omega_calc_M_vir     160  9.0     0.00     0.00   459.33   459.33
 mp_isend_dv                    1099258 16.8    57.76   442.56    57.76   442.56
 dbt_tas_mm_1N                      322 15.0     0.00     0.00   296.29   425.29
 dbt_tas_mm_3T                      704 16.5     0.00     0.00   357.79   417.77
 dbt_communicate_buffer            1597 12.9     0.40     0.45   397.88   416.27
 cp_cfm_cholesky_decompose          389  9.7   393.25   393.48   393.25   393.48
 cholesky_decomp_Q                  260  9.0     0.51     1.66   386.26   387.28
 own_cfm_upper_to_full              260 11.0     0.20     0.24   116.32   385.34
 cp_cfm_transpose                   260 12.0   115.99   385.01   115.99   385.01
 dbm_redistribute                  3180 15.7   327.81   358.65   327.81   358.65
 get_bandstruc_and_k_dependent_       1  6.0     0.00     0.00   336.27   336.28
 create_kp_and_calc_kp_orbitals       3  7.0     0.00     0.01   336.27   336.28
 convert_to_new_pgrid              5673 14.8    23.96    40.45   299.78   314.91
 cp_cfm_geeig                       129  8.0     0.00     0.00   312.99   313.44
 -------------------------------------------------------------------------------

 The number of warnings for this run is : 2
 
 -------------------------------------------------------------------------------
  **** **** ******  **  PROGRAM ENDED AT                 2023-05-28 04:14:17.977
 ***** ** ***  *** **   PROGRAM RAN ON                                  n2cn0301
 **    ****   ******    PROGRAM RAN BY                                  eprop2d1
 ***** **    ** ** **   PROGRAM PROCESS ID                               3899437
  **** **  *******  **  PROGRAM STOPPED IN /scratch/hpc-prf-eprop2d/eprop2d1_Jan
                                           /02_MoS2_MoSe2_WS2_WSe2/4_WSe2/10x10/
                                           5_reg_RI_1e-2_TZV2P_huge_RI_gap
