     870
 i =       12, E =    -25515.1605731066
 Mo        38.7440387773        0.0001073014       13.4982486432
 Mo        46.2706754100       33.3130532840       13.4968510161
 Mo        49.4742160654       32.5876259480       13.4958036427
 Mo        52.6845421550       31.8661102561       13.4940141772
 Mo        55.8859573979       31.1370727034       13.4933023756
 Mo        34.4231685996       33.0725457277       13.4967510620
 Mo        37.6258538342       32.3486579051       13.4943916069
 Mo        40.8365857973       31.6234159816       13.4963985913
 Mo        44.0401406443       30.8968920071       13.4971509165
 Mo        47.2476806050       30.1764011304       13.4938423184
 Mo        50.4502567153       29.4468177000       13.4933043877
 Mo        53.6535024240       28.7284511114       13.4923034720
 Mo        22.5800993132       32.8308441819       13.4933149909
 Mo        25.7822499333       32.1017615822       13.4923020669
 Mo        28.9845731535       31.3843583398       13.4909648625
 Mo        32.1950972713       30.6586742877       13.4952163706
 Mo        35.3993717816       29.9310160990       13.4957055831
 Mo        38.6073419481       29.2098056856       13.4956199717
 Mo        41.8087380625       28.4836092952       13.4942550038
 Mo        45.0155271969       27.7603470871       13.4996744903
 Mo        48.2180169180       27.0380134838       13.4946433648
 Mo        51.4310856153       26.3138821534       13.4909717872
 Mo        20.3467636981       30.4159716480       13.4983472014
 Mo        23.5494622133       29.6937612475       13.4940402676
 Mo        26.7617599858       28.9684933422       13.4932883329
 Mo        29.9639871554       28.2397269864       13.4946011127
 Mo        33.1700881576       27.5215069158       13.4941632233
 Mo        36.3736348982       26.7928428717       13.4948271554
 Mo        39.5779709481       26.0721393421       13.4949122367
 Mo        42.7875561197       25.3483949910       13.4957229008
 Mo        45.9929799467       24.6205497007       13.4941790464
 Mo        49.1973588063       23.8963305392       13.4952500385
 Mo        18.1190960933       28.0037318202       13.4946935261
 Mo        21.3241720412       27.2752847136       13.4947972570
 Mo        24.5297415049       26.5528419883       13.4958179604
 Mo        27.7312173593       25.8301585060       13.4938306590
 Mo        30.9396666510       25.1050981344       13.4996536636
 Mo        34.1424856417       24.3815782475       13.4957259531
 Mo        37.3549968847       23.6591183455       13.4907571459
 Mo        40.5556004115       22.9275175135       13.4907576317
 Mo        43.7601897279       22.2105046929       13.4948336365
 Mo        46.9650399136       21.4851910110       13.4957205859
 Mo        50.1739024531       20.7599108186       13.4967237087
 Mo        15.8872787156       25.5830804788       13.4918990498
 Mo        19.0925139622       24.8662547450       13.4942822100
 Mo        22.2968383303       24.1390006683       13.4957112211
 Mo        25.5032937762       23.4157358624       13.4968263574
 Mo        28.7110426359       22.6921148008       13.4971236566
 Mo        31.9166939877       21.9663137651       13.4942539134
 Mo        35.1204985536       21.2400840123       13.4949069081
 Mo        38.3217157937       20.5214781786       13.4907718903
 Mo        41.5338962444       19.7958638638       13.4948914352
 Mo        44.7364781425       19.0676263609       13.4956128543
 Mo        47.9455829683       18.3482040227       13.4943708969
 Mo        13.6538800062       23.1762111446       13.4921983214
 Mo        16.8644383446       22.4502578510       13.4977722984
 Mo        20.0671542086       21.7244286854       13.4962429003
 Mo        23.2781686992       21.0037742944       13.4923065177
 Mo        26.4791093860       20.2728730910       13.4911403166
 Mo        29.6836437193       19.5544959015       13.4963883422
 Mo        32.8885095126       18.8306978086       13.4956319054
 Mo        36.0984962540       18.1047501728       13.4948273088
 Mo        39.3022934287       17.3781548755       13.4957121763
 Mo        42.5068693193       16.6581952309       13.4942492702
 Mo        45.7121069935       15.9302468779       13.4963944773
 Mo        14.6343927045       20.0352103852       13.4974169039
 Mo        17.8396908983       19.3123790311       13.4945449869
 Mo        21.0436958769       18.5847766087       13.4955300840
 Mo        24.2456330120       17.8659047083       13.4909734627
 Mo        27.4582021784       17.1409938126       13.4928773106
 Mo        30.6609186181       16.4112878854       13.4943640558
 Mo        33.8679094764       15.6919291631       13.4957090154
 Mo        37.0692208049       14.9660690949       13.4941640658
 Mo        40.2770845313       14.2426676074       13.4996547061
 Mo        43.4811486579       13.5191176579       13.4971496561
 Mo        12.4018231293       17.6193336226       13.4932859549
 Mo        15.6078688151       16.8984811747       13.4985585309
 Mo        18.8123151752       16.1752554774       13.4962493145
 Mo        22.0234129819       15.4500636021       13.4926271109
 Mo        25.2254105306       14.7211518173       13.4930013233
 Mo        28.4292120406       14.0035866317       13.4932918065
 Mo        31.6353008949       13.2757960150       13.4967445829
 Mo        34.8398534658       12.5531154409       13.4952212157
 Mo        38.0502981370       11.8304122432       13.4946008704
 Mo        41.2533887239       11.1015566696       13.4938323255
 Mo        44.4583195414       10.3793371495       13.4968640071
 Mo        10.1702799996       15.2096932505       13.4928986385
 Mo        13.3823055504       14.4859811589       13.4929889872
 Mo        16.5849888178       13.7557958960       13.4935955144
 Mo        19.7905221521       13.0355474514       13.4963737415
 Mo        22.9916904172       12.3125566270       13.4936055194
 Mo        26.2019232595       11.5874998572       13.4985489888
 Mo        29.4051516158       10.8621932953       13.4974236255
 Mo        32.6155983423       10.1408480405       13.4921873291
 Mo        35.8166200644        9.4098703173       13.4909655028
 Mo        39.0202447328        8.6927973964       13.4932993193
 Mo        42.2283252756        7.9676978867       13.4958073483
 Mo         7.9475368934       12.7958847066       13.4912165321
 Mo        11.1487440444       12.0650772210       13.4909727236
 Mo        14.3520460257       11.3484846380       13.4926204109
 Mo        17.5595072163       10.6219935503       13.4963572839
 Mo        20.7651939936        9.8966590429       13.4963524560
 Mo        23.9733937444        9.1739406044       13.4962220726
 Mo        27.1765279461        8.4477183502       13.4945409304
 Mo        30.3816102983        7.7233899408       13.4978000377
 Mo        33.5832942581        7.0032083321       13.4919102893
 Mo        36.7965020658        6.2779261196       13.4923001330
 Mo        39.9982742750        5.5482391223       13.4940142110
 Mo         8.9150071947        9.6582857917       13.4923387459
 Mo        12.1271628349        8.9326857608       13.4955035659
 Mo        15.3295103341        8.2049942508       13.4962245384
 Mo        18.5385103899        7.4858431234       13.4936010925
 Mo        21.7397738879        6.7556748302       13.4926175997
 Mo        24.9444040675        6.0367697046       13.4955180943
 Mo        28.1517175698        5.3126161301       13.4962579105
 Mo        31.3598960248        4.5858061845       13.4942854756
 Mo        34.5637255716        3.8600569802       13.4947030149
 Mo        37.7662000995        3.1402114766       13.4933112457
 Mo         6.6904640979        7.2408398726       13.4957134354
 Mo         9.8963894837        6.5171330292       13.4962436231
 Mo        13.0990468502        5.7941165294       13.4945437518
 Mo        16.3054637601        5.0682475399       13.4985645687
 Mo        19.5075417889        4.3470982938       13.4930168197
 Mo        22.7209004338        3.6232650174       13.4909754899
 Mo        25.9220654801        2.8921545488       13.4923274206
 Mo        29.1279232870        2.1743812154       13.4957251392
 Mo        32.3303137864        1.4485826328       13.4947963202
 Mo        35.5389511572        0.7247211835       13.4983240555
 Mo         4.4607173406        4.8303322383       13.4947940755
 Mo         7.6628202761        4.1021563108       13.4942692610
 Mo        10.8691985150        3.3805845963       13.4977699856
 Mo        14.0757303870        2.6568252922       13.4974272358
 Mo        17.2842290240        1.9313185781       13.4933007462
 Mo        20.4868060324        1.2035633873       13.4929206718
 Mo        23.6885177994        0.4855330959       13.4912477555
 Mo         2.2294839541        2.4135143933       13.4983278202
 Mo         5.4323947372        1.6904187564       13.4946933109
 Mo         8.6447047198        0.9679196864       13.4918522712
 Mo        11.8457759876        0.2371845516       13.4921759042
 Se        56.3043198437       32.9811112482       15.1774455157
 Se        41.2555403552       33.4736884312       15.1813424098
 Se        44.4510311842       32.7541546779       15.1721448146
 Se        47.6642135488       32.0245726604       15.1821780028
 Se        50.8756494891       31.2960752816       15.1703835985
 Se        54.0766861110       30.5775433455       15.1801786020
 Se        29.4083397949       33.2329199431       15.1789634858
 Se        32.6134501669       32.5086849700       15.1816778600
 Se        35.8136310304       31.7801748378       15.1784340792
 Se        39.0219688213       31.0670150693       15.1749336776
 Se        42.2290984806       30.3280999150       15.1796843003
 Se        45.4435684756       29.6137013479       15.1790055189
 Se        48.6366225784       28.8885103474       15.1799040384
 Se        51.8450947322       28.1623211651       15.1804132076
 Se        20.7751106056       32.2701237292       15.1774586619
 Se        23.9705071549       31.5426788309       15.1801671610
 Se        27.1779538234       30.8176672517       15.1804083086
 Se        30.3761706160       30.0955461119       15.1676293948
 Se        33.5890430248       29.3717498141       15.1809290046
 Se        36.7989475571       28.6404686543       15.1753830585
 Se        40.0002175619       27.9218501189       15.1816526332
 Se        43.1998918986       27.2013626316       15.1817852305
 Se        46.4082289538       26.4657565155       15.1802557538
 Se        49.6206529667       25.7536744098       15.1676582899
 Se        52.8216134938       25.0231589223       15.1789709600
 Se        18.5340391974       29.8545405339       15.1823265582
 Se        21.7386932027       29.1222692455       15.1788314035
 Se        24.9488237427       28.4112206816       15.1704099766
 Se        28.1533276622       27.6759453918       15.1798645916
 Se        31.3656710082       26.9574990117       15.1802399470
 Se        34.5582098398       26.2334706239       15.1789616561
 Se        37.7675668328       25.5082039436       15.1809436315
 Se        40.9727393859       24.7759402218       15.1678546980
 Se        44.1849702172       24.0629412209       15.1789814670
 Se        47.3873739249       23.3331424173       15.1809408095
 Se        50.5918497515       22.6095804060       15.1817263660
 Se        16.3020202637       27.4354412870       15.1659157352
 Se        19.5145480623       26.7179628437       15.1794944652
 Se        22.7210314217       25.9863075638       15.1790462972
 Se        25.9235795891       25.2657694101       15.1821825734
 Se        29.1218240945       24.5480790417       15.1789654294
 Se        32.3327902815       23.8111725794       15.1817806606
 Se        35.5468782878       23.0950930295       15.1678587359
 Se        38.7450123318       22.3692033423       15.1783639442
 Se        41.9521815810       21.6462076029       15.1809457854
 Se        45.1491063350       20.9189175479       15.1754058785
 Se        48.3609136440       20.2024050595       15.1783952882
 Se        17.2866545708       24.3017054749       15.1807020958
 Se        20.4805295007       23.5768839372       15.1771828771
 Se        23.6910372235       22.8551143899       15.1805072857
 Se        26.8983692414       22.1183006943       15.1721086590
 Se        30.1103656713       21.4070660254       15.1797065481
 Se        33.3086764884       20.6799283678       15.1816263452
 Se        36.5152728226       19.9531919746       15.1809687058
 Se        39.7154765007       19.2365845298       15.1678505516
 Se        42.9261456365       18.5058348987       15.1816213303
 Se        46.1391021422       17.7805096651       15.1749232219
 Se        15.0455210031       21.8934972916       15.1737363683
 Se        18.2571457651       21.1581969485       15.1824534882
 Se        21.4715232263       20.4370075529       15.1708522818
 Se        24.6682164676       19.7142691329       15.1788108654
 Se        27.8729334222       18.9911978047       15.1812586551
 Se        31.0739984656       18.2601254730       15.1749302111
 Se        34.2869921825       17.5482193455       15.1754046634
 Se        37.4918668605       16.8112033033       15.1789474013
 Se        40.7023247760       16.0950867667       15.1817948988
 Se        43.8955875327       15.3724743524       15.1796865351
 Se        47.1065038926       14.6427702549       15.1812965357
 Se        12.8233508873       19.4637564231       15.1766332848
 Se        16.0347064534       18.7510326297       15.1810531867
 Se        19.2296159462       18.0264575543       15.1813562786
 Se        22.4385778463       17.2974160366       15.1808356619
 Se        25.6416258086       16.5772727985       15.1640496599
 Se        28.8507506986       15.8527210379       15.1801743085
 Se        32.0605593681       15.1250951494       15.1784267542
 Se        35.2586111216       14.4027237363       15.1809481774
 Se        38.4611019780       13.6843729961       15.1802310081
 Se        41.6696328929       12.9458502291       15.1789662253
 Se        44.8856475187       12.2351950308       15.1721676613
 Se        10.5908886213       17.0587837773       15.1801901622
 Se        13.7942848677       16.3373469896       15.1815670463
 Se        16.9995156863       15.6018944528       15.1763908751
 Se        20.2141833759       14.8923381771       15.1729010205
 Se        23.4151627330       14.1587939933       15.1794182965
 Se        26.6242442927       13.4392113999       15.1815927939
 Se        29.8172743231       12.7168894611       15.1766511437
 Se        33.0297186708       11.9894065613       15.1816700003
 Se        36.2382210810       11.2584139460       15.1676204287
 Se        39.4450633426       10.5431693530       15.1798928298
 Se        42.6471981608        9.8172795782       15.1821751960
 Se        11.5680036420       13.9173184138       15.1640489078
 Se        14.7756304036       13.1983714087       15.1794382761
 Se        17.9816018118       12.4709129392       15.1809473884
 Se        21.1821512556       11.7460548825       15.1809768100
 Se        24.3847443659       11.0310749559       15.1763782595
 Se        27.5943594774       10.2920976625       15.1810200233
 Se        30.8104355961        9.5775681128       15.1737613048
 Se        34.0050753095        8.8515515926       15.1789746122
 Se        37.2119173048        8.1276289282       15.1804127740
 Se        40.4105711003        7.4003433337       15.1703802934
 Se         9.3379768256       11.5058293924       15.1788263316
 Se        12.5458115506       10.7833246919       15.1808266825
 Se        15.7408740986       10.0594497842       15.1728734564
 Se        18.9541716910        9.3367236469       15.1809599820
 Se        22.1629213290        8.6019238227       15.1728608745
 Se        25.3694215383        7.8874972490       15.1813698489
 Se        28.5678157729        7.1638124358       15.1824624604
 Se        31.7753939934        6.4325285449       15.1807122996
 Se        34.9816266691        5.7183886745       15.1659233183
 Se        38.1877811448        4.9873991193       15.1801588153
 Se         7.1064577122        9.0891321363       15.1805408059
 Se        10.3104101886        8.3760303668       15.1708399993
 Se        13.5189139374        7.6397609217       15.1813464297
 Se        16.7336879274        6.9207397552       15.1763942186
 Se        19.9271512683        6.1965414965       15.1794372427
 Se        23.1335753945        5.4730076519       15.1808189987
 Se        26.3360681045        4.7406876247       15.1708426599
 Se        29.5507973335        4.0289407475       15.1772094478
 Se        32.7540078963        3.2949733458       15.1794750455
 Se        35.9605999330        2.5758372516       15.1823482146
 Se        39.1554996571        1.8563884601       15.1774391808
 Se         4.8797929082        6.6834977910       15.1790557654
 Se         8.0866536096        5.9478713554       15.1771642841
 Se        11.2929960753        5.2317023651       15.1824734813
 Se        14.4889047629        4.5105995204       15.1810285609
 Se        17.6994283561        3.7771769397       15.1815914993
 Se        20.9084383923        3.0591878599       15.1640684265
 Se        24.1118133873        2.3336632975       15.1788450688
 Se        27.3204539190        1.6094651338       15.1805260014
 Se        30.5171162187        0.8838973118       15.1790713466
 Se        33.7241285230        0.1666509554       15.1788104870
 Se         2.6551090689        4.2647941499       15.1788075326
 Se         5.8493920125        3.5407626629       15.1794881418
 Se         9.0558934222        2.8194717470       15.1806659394
 Se        12.2620490441        2.0826866193       15.1737274949
 Se        15.4773854037        1.3731021316       15.1766680478
 Se        18.6763655327        0.6422460444       15.1801894040
 Se         3.6232929914        1.1233488345       15.1823302680
 Se         6.8343538355        0.3999083608       15.1658956785
 Se        56.3061141916       32.9909534116       11.8119055880
 Se        41.2525256480       33.4711235736       11.8066879122
 Se        44.4591298627       32.7478765805       11.8108525569
 Se        47.6643045953       32.0265847681       11.8093626238
 Se        50.8709074048       31.3009882993       11.8101430246
 Se        54.0757575244       30.5778663119       11.8065413001
 Se        29.4079243548       33.2328214654       11.8045865406
 Se        32.6152863970       32.5070456347       11.8083217034
 Se        35.8158116938       31.7828894690       11.8103282827
 Se        39.0239853776       31.0610115578       11.8107542694
 Se        42.2301036805       30.3347007097       11.8105574785
 Se        45.4347500724       29.6099946032       11.8119896842
 Se        48.6387275910       28.8866404488       11.8076551569
 Se        51.8453579398       28.1638588502       11.8050049999
 Se        20.7656783970       32.2667419644       11.8119504046
 Se        23.9706615694       31.5417093651       11.8065620052
 Se        27.1764822951       30.8171444478       11.8050037667
 Se        30.3830543600       30.0927345614       11.8095500515
 Se        33.5889385073       29.3709079629       11.8089568167
 Se        36.7953899890       28.6448980752       11.8105659312
 Se        39.9988668896       27.9216917110       11.8086727152
 Se        43.2064218670       27.1981722040       11.8109519903
 Se        46.4077758236       26.4733586511       11.8106507322
 Se        49.6147324052       25.7491054805       11.8095890997
 Se        52.8217308622       25.0235590132       11.8046152154
 Se        18.5385653969       29.8529041066       11.8092482565
 Se        21.7392608171       29.1279085825       11.8103410373
 Se        24.9468805088       28.4046722786       11.8101364306
 Se        28.1538547719       27.6787077667       11.8076414079
 Se        31.3593202491       26.9532913504       11.8106351521
 Se        34.5625368369       26.2311147778       11.8092198561
 Se        37.7695342123       25.5100563124       11.8067061708
 Se        40.9755829523       24.7837834880       11.8098015117
 Se        44.1807611899       24.0603689216       11.8092259451
 Se        47.3866810666       23.3336576421       11.8089851425
 Se        50.5895035618       22.6088458163       11.8083056036
 Se        16.3069082433       27.4381581332       11.8089679954
 Se        19.5127778840       26.7155257134       11.8086490780
 Se        22.7189432389       25.9887863718       11.8098850736
 Se        25.9217740863       25.2648829921       11.8093734757
 Se        29.1294200340       24.5423178896       11.8119645290
 Se        32.3323001664       23.8184241950       11.8109450580
 Se        35.5386413977       23.0936290391       11.8098129794
 Se        38.7449958056       22.3691969730       11.8034571405
 Se        41.9527941569       21.6435931775       11.8067056775
 Se        45.1547246525       20.9197881509       11.8105534490
 Se        48.3621377860       20.1991929493       11.8103376997
 Se        17.2837836487       24.2977197961       11.8084592903
 Se        20.4862539560       23.5752166566       11.8102794526
 Se        23.6936041484       22.8549709279       11.8089405733
 Se        26.8997570275       22.1285133799       11.8107936792
 Se        30.1041481614       21.4046387993       11.8105501092
 Se        33.3094757757       20.6788374071       11.8086822607
 Se        36.5126946246       19.9539838247       11.8067031690
 Se        39.7208164382       19.2302066420       11.8097976004
 Se        42.9266722735       18.5070806754       11.8086597395
 Se        46.1328563168       17.7817482206       11.8107554446
 Se        15.0527179286       21.8859709361       11.8114812821
 Se        18.2572587217       21.1627942313       11.8102647296
 Se        21.4632646717       20.4377207936       11.8104686520
 Se        24.6682473937       19.7145870261       11.8044692573
 Se        27.8767076327       18.9898540316       11.8066641796
 Se        31.0782142322       18.2649079780       11.8107469037
 Se        34.2849044711       17.5429458142       11.8105607695
 Se        37.4917164994       16.8161338861       11.8092153207
 Se        40.6962855122       16.0910256686       11.8109472766
 Se        43.9007862654       15.3682938015       11.8105587875
 Se        47.1057752868       14.6466832121       11.8066801794
 Se        12.8237954125       19.4722334241       11.8108612661
 Se        16.0277692015       18.7480174352       11.8115215989
 Se        19.2324599287       18.0237639890       11.8094796698
 Se        22.4364792886       17.3002285837       11.8060994105
 Se        25.6443492111       16.5751453144       11.8083910435
 Se        28.8508387656       15.8517815315       11.8069734166
 Se        32.0571278863       15.1256214074       11.8103144098
 Se        35.2593886212       14.4030707334       11.8089592940
 Se        38.4679019925       13.6809899473       11.8106188307
 Se        41.6708405792       12.9553234261       11.8119779997
 Se        44.8761129971       12.2312894719       11.8108384324
 Se        10.5916362774       17.0593328242       11.8069769362
 Se        13.8001032157       16.3360914360       11.8086715629
 Se        17.0019477197       15.6102466871       11.8114188029
 Se        20.2079716664       14.8870540844       11.8106304475
 Se        23.4146161330       14.1604696517       11.8064922049
 Se        26.6202274118       13.4348080352       11.8086793184
 Se        29.8243809382       12.7122565180       11.8108736238
 Se        33.0302192099       11.9918176918       11.8083309851
 Se        36.2371971545       11.2657807449       11.8095617990
 Se        39.4423900837       10.5422540876       11.8076438934
 Se        42.6488852048        9.8161849272       11.8093736829
 Se        11.5684439111       13.9207517785       11.8083899678
 Se        14.7744359443       13.1970778799       11.8064676797
 Se        17.9809357771       12.4705766302       11.8095033637
 Se        21.1821845370       11.7468200724       11.8094879263
 Se        24.3907429718       11.0248226818       11.8114123384
 Se        27.5952186941       10.2996029551       11.8115180445
 Se        30.8002785053        9.5750604791       11.8115002053
 Se        34.0053380315        8.8512210650       11.8046123882
 Se        37.2131046069        8.1266287328       11.8050000696
 Se        40.4171982927        7.4019746053       11.8101406993
 Se         9.3376234277       11.5057212248       11.8045027937
 Se        12.5444155280       10.7801223051       11.8060910446
 Se        15.7485410134       10.0567410127       11.8106104296
 Se        18.9547839382        9.3363235269       11.8094754926
 Se        22.1614216186        8.6099173713       11.8106126836
 Se        25.3656678348        7.8863651296       11.8094611709
 Se        28.5717420458        7.1614072772       11.8102859512
 Se        31.7733671138        6.4370140455       11.8084678363
 Se        34.9815069889        5.7127870050       11.8089802007
 Se        38.1885057662        4.9880309105       11.8065477006
 Se         7.1053019987        9.0914687500       11.8089660147
 Se        10.3138540340        8.3685479201       11.8104699980
 Se        13.5198059412        7.6435676271       11.8094493314
 Se        16.7252421190        6.9186437741       11.8114275552
 Se        19.9288491480        6.1961497723       11.8064846514
 Se        23.1370489495        5.4734076244       11.8060909104
 Se        26.3408224813        4.7474405292       11.8104736736
 Se        29.5464622957        4.0248179284       11.8102841218
 Se        32.7527563748        3.2977237348       11.8086632024
 Se        35.9569105782        2.5727518670       11.8092490317
 Se        39.1631115656        1.8499156779       11.8119247012
 Se         4.8786759699        6.6804742204       11.8098729800
 Se         8.0852212257        5.9536803068       11.8102845178
 Se        11.2889507687        5.2295112770       11.8102743450
 Se        14.4949719910        4.5061000323       11.8115256638
 Se        17.6976212765        3.7828528493       11.8086832666
 Se        20.9052026422        3.0578509291       11.8084072777
 Se        24.1120481484        2.3334027818       11.8045012062
 Se        27.3190157528        1.6073037550       11.8089660371
 Se        30.5202890405        0.8844721622       11.8098671100
 Se        33.7287029229        0.1633649073       11.8103194972
 Se         2.6499455043        4.2624620661       11.8103418846
 Se         5.8523745452        3.5404645223       11.8086459839
 Se         9.0607771083        2.8190165687       11.8084350723
 Se        12.2649758329        2.0927106129       11.8114806853
 Se        15.4698057633        1.3692526421       11.8108895009
 Se        18.6755057344        0.6426259345       11.8069991383
 Se         3.6224467649        1.1280819826       11.8092388877
 Se         6.8295076509        0.4027703609       11.8089680897
  W        -0.0000413630        0.0007738878       20.1617941246
  W        55.1674882268       32.4441315484       20.1608016236
  W        49.7777785356       33.3359133641       20.1623727341
  W        52.2140942815       31.3310375100       20.1625109129
  W        54.6526865516       29.3350407177       20.1618384375
  W        46.8307257678       32.2202808357       20.1620399884
  W        49.2635605325       30.2201630928       20.1610505777
  W        51.7031359925       28.2212448458       20.1629776524
  W        41.4380132085       33.1121299181       20.1624847955
  W        43.8757448041       31.1108306101       20.1622148673
  W        46.3121878694       29.1111302169       20.1610746815
  W        48.7527692482       27.1110906951       20.1624958968
  W        51.1901543446       25.1099027726       20.1616367021
  W        38.4904093394       31.9976968629       20.1622356658
  W        40.9274203697       29.9992409148       20.1606631524
  W        43.3625458940       27.9968774814       20.1612558671
  W        45.8023325451       26.0011661600       20.1614881871
  W        48.2354300089       23.9973045260       20.1622873737
  W        50.6754236392       22.0028000958       20.1623428243
  W        33.0972245170       32.8858884401       20.1623438228
  W        35.5373356405       30.8915178498       20.1623116782
  W        37.9724538111       28.8865209120       20.1624412862
  W        40.4117115575       26.8915782065       20.1618936571
  W        42.8513235425       24.8870857317       20.1623562523
  W        45.2872835952       22.8892723831       20.1602852433
  W        47.7281881551       20.8868159044       20.1623291518
  W        30.1490126396       31.7781107395       20.1616293439
  W        32.5899378354       29.7755429968       20.1622809311
  W        35.0236017933       27.7763812453       20.1602894274
  W        37.4635580384       25.7760015916       20.1626182237
  W        39.8986399049       23.7778255279       20.1620563827
  W        42.3349393448       21.7764245266       20.1626166579
  W        44.7742848997       19.7804298848       20.1624318304
  W        47.2096363600       17.7762549768       20.1622329235
  W        24.7586789613       32.6641631052       20.1618548355
  W        27.1980695104       30.6666865437       20.1629745824
  W        29.6346453792       28.6666768599       20.1625034023
  W        32.0711338898       26.6664738588       20.1614779652
  W        34.5114483906       24.6678405311       20.1623267024
  W        36.9484335289       22.6653789571       20.1620433123
  W        39.3869224686       20.6666519951       20.1620489171
  W        41.8269824716       18.6654474721       20.1619063591
  W        44.2604282343       16.6649884023       20.1606566538