 DBCSR| CPU Multiplication driver                                           BLAS (U)
 DBCSR| Multrec recursion limit                                              512 (U)
 DBCSR| Multiplication stack size                                           1000 (D)
 DBCSR| Maximum elements for images                                    UNLIMITED (U)
 DBCSR| Multiplicative factor virtual images                                   1 (U)
 DBCSR| Use multiplication densification                                       T (D)
 DBCSR| Multiplication size stacks                                             3 (U)
 DBCSR| Use memory pool for CPU allocation                                     F (U)
 DBCSR| Number of 3D layers                                               SINGLE (U)
 DBCSR| Use MPI memory allocation                                              F (U)
 DBCSR| Use RMA algorithm                                                      F (U)
 DBCSR| Use Communication thread                                               T (U)
 DBCSR| Communication thread load                                             87 (D)
 DBCSR| MPI: My process id                                                     0
 DBCSR| MPI: Number of processes                                            1600
 DBCSR| OMP: Current number of threads                                         1
 DBCSR| OMP: Max number of threads                                             1
 DBCSR| Split modifier for TAS multiplication algorithm                  1.0E+00 (U)


  **** **** ******  **  PROGRAM STARTED AT               2023-03-27 18:01:36.534
 ***** ** ***  *** **   PROGRAM STARTED ON                          f01r01c01s01
 **    ****   ******    PROGRAM STARTED BY                               di76zil
 ***** **    ** ** **   PROGRAM PROCESS ID                               1594998
  **** **  *******  **  PROGRAM STARTED IN /hppfs/work/pn72pa/di76zil/11_2D_peri
                                           odic_materials/13_MoSe2_WS2_heterostr
                                           ucture/02_9.3deg_645_atoms/2_GW/11_as
                                           _10_but_regularization_1e-2

 CP2K| version string:                 CP2K version 2023.1 (Development Version)
 CP2K| source code revision number:                                  git:383ec4c
 CP2K| cp2kflags: omp libint fftw3 parallel scalapack mkl                       
 CP2K| is freely available from                            https://www.cp2k.org/
 CP2K| Program compiled at                       Wed 01 Feb 2023 09:43:43 PM CET
 CP2K| Program compiled on                                               login01
 CP2K| Program compiled for                       supermuc_jw_intel19_2022_04_11
 CP2K| Data directory path    /hppfs/work/pn72pa/di76zil/23_compilation/54_print
 CP2K| Input file name                                               GW_WSe2.inp
 
 GLOBAL| Force Environment number                                              1
 GLOBAL| Basis set file name                                        BASIS_MOLOPT
 GLOBAL| Potential file name                                      GTH_POTENTIALS
 GLOBAL| MM Potential file name                                     MM_POTENTIAL
 GLOBAL| Coordinate file name                                          struc.xyz
 GLOBAL| Method name                                                        CP2K
 GLOBAL| Project name                                                       MoS2
 GLOBAL| Run type                                                         ENERGY
 GLOBAL| FFT library                                                       FFTW3
 GLOBAL| Diagonalization library                                       ScaLAPACK
 GLOBAL| DGEMM library                                                      BLAS
 GLOBAL| Orthonormality check for eigenvectors                          DISABLED
 GLOBAL| Matrix multiplication library                                 ScaLAPACK
 GLOBAL| All-to-all communication in single precision                          F
 GLOBAL| FFTs using library dependent lengths                                  F
 GLOBAL| Grid backend                                                       AUTO
 GLOBAL| Global print level                                               MEDIUM
 GLOBAL| MPI I/O enabled                                                       T
 GLOBAL| Total number of message passing processes                          1600
 GLOBAL| Number of threads for this process                                    1
 GLOBAL| This output is from process                                           0
 GLOBAL| Stack size for threads created by OpenMP (OMP_STACKSIZE)          2000m
 GLOBAL| CPU model name             Intel(R) Xeon(R) Platinum 8174 CPU @ 3.10GHz

 MEMORY| system memory details [Kb]
 MEMORY|                        rank 0           min           max       average
 MEMORY| MemTotal            792068884     792068876     792069348     792068925
 MEMORY| MemFree             776793864     776253056     777639492     776956609
 MEMORY| Buffers                     0             0             0             0
 MEMORY| Cached                2689420       2614992       2851812       2655369
 MEMORY| Slab                  1080244        938456       1192088       1056605
 MEMORY| SReclaimable           232976        189540        260596        224273
 MEMORY| MemLikelyFree       779716260     779163580     780448816     779836252


 *** Fundamental physical constants (SI units) ***

 *** Literature: B. J. Mohr and B. N. Taylor,
 ***             CODATA recommended values of the fundamental physical
 ***             constants: 2006, Web Version 5.1
 ***             http://physics.nist.gov/constants

 Speed of light in vacuum [m/s]                             2.99792458000000E+08
 Magnetic constant or permeability of vacuum [N/A**2]       1.25663706143592E-06
 Electric constant or permittivity of vacuum [F/m]          8.85418781762039E-12
 Planck constant (h) [J*s]                                  6.62606896000000E-34
 Planck constant (h-bar) [J*s]                              1.05457162825177E-34
 Elementary charge [C]                                      1.60217648700000E-19
 Electron mass [kg]                                         9.10938215000000E-31
 Electron g factor [ ]                                     -2.00231930436220E+00
 Proton mass [kg]                                           1.67262163700000E-27
 Fine-structure constant                                    7.29735253760000E-03
 Rydberg constant [1/m]                                     1.09737315685270E+07
 Avogadro constant [1/mol]                                  6.02214179000000E+23
 Boltzmann constant [J/K]                                   1.38065040000000E-23
 Atomic mass unit [kg]                                      1.66053878200000E-27
 Bohr radius [m]                                            5.29177208590000E-11

 *** Conversion factors ***

 [u] -> [a.u.]                                              1.82288848426455E+03
 [Angstrom] -> [Bohr] = [a.u.]                              1.88972613288564E+00
 [a.u.] = [Bohr] -> [Angstrom]                              5.29177208590000E-01
 [a.u.] -> [s]                                              2.41888432650478E-17
 [a.u.] -> [fs]                                             2.41888432650478E-02
 [a.u.] -> [J]                                              4.35974393937059E-18
 [a.u.] -> [N]                                              8.23872205491840E-08
 [a.u.] -> [K]                                              3.15774647902944E+05
 [a.u.] -> [kJ/mol]                                         2.62549961709828E+03
 [a.u.] -> [kcal/mol]                                       6.27509468713739E+02
 [a.u.] -> [Pa]                                             2.94210107994716E+13
 [a.u.] -> [bar]                                            2.94210107994716E+08
 [a.u.] -> [atm]                                            2.90362800883016E+08
 [a.u.] -> [eV]                                             2.72113838565563E+01
 [a.u.] -> [Hz]                                             6.57968392072181E+15
 [a.u.] -> [1/cm] (wave numbers)                            2.19474631370540E+05
 [a.u./Bohr**2] -> [1/cm]                                   5.14048714338585E+03
 

 CELL_TOP| Volume [angstrom^3]:                                     19285.290588
 CELL_TOP| Vector a [angstrom    33.368     0.000     0.000   |a| =    33.368200
 CELL_TOP| Vector b [angstrom    16.684    28.898     0.000   |b| =    33.368200
 CELL_TOP| Vector c [angstrom     0.000     0.000    20.000   |c| =    20.000000
 CELL_TOP| Angle (b,c), alpha [degree]:                                90.000000
 CELL_TOP| Angle (a,c), beta  [degree]:                                90.000000
 CELL_TOP| Angle (a,b), gamma [degree]:                                60.000000
 CELL_TOP| Numerically orthorhombic:                                          NO
 CELL_TOP| Periodicity                                                        XY
 
 GENERATE|  Preliminary Number of Bonds generated:                             0
 GENERATE|  Achieved consistency in connectivity generation.

 CELL| Volume [angstrom^3]:                                         19285.290588
 CELL| Vector a [angstrom]:      33.368     0.000     0.000   |a| =    33.368200
 CELL| Vector b [angstrom]:      16.684    28.898     0.000   |b| =    33.368200
 CELL| Vector c [angstrom]:       0.000     0.000    20.000   |c| =    20.000000
 CELL| Angle (b,c), alpha [degree]:                                    90.000000
 CELL| Angle (a,c), beta  [degree]:                                    90.000000
 CELL| Angle (a,b), gamma [degree]:                                    60.000000
 CELL| Numerically orthorhombic:                                              NO
 CELL| Periodicity                                                            XY

 CELL_REF| Volume [angstrom^3]:                                     19285.290588
 CELL_REF| Vector a [angstrom    33.368     0.000     0.000   |a| =    33.368200
 CELL_REF| Vector b [angstrom    16.684    28.898     0.000   |b| =    33.368200
 CELL_REF| Vector c [angstrom     0.000     0.000    20.000   |c| =    20.000000
 CELL_REF| Angle (b,c), alpha [degree]:                                90.000000
 CELL_REF| Angle (a,c), beta  [degree]:                                90.000000
 CELL_REF| Angle (a,b), gamma [degree]:                                60.000000
 CELL_REF| Numerically orthorhombic:                                          NO
 CELL_REF| Periodicity                                                        XY

 *******************************************************************************
 *******************************************************************************
 **                                                                           **
 **     #####                         ##              ##                      **
 **    ##   ##            ##          ##              ##                      **
 **   ##     ##                       ##            ######                    **
 **   ##     ##  ##   ##  ##   #####  ##  ##   ####   ##    #####    #####    **
 **   ##     ##  ##   ##  ##  ##      ## ##   ##      ##   ##   ##  ##   ##   **
 **   ##  ## ##  ##   ##  ##  ##      ####     ###    ##   ######   ######    **
 **    ##  ###   ##   ##  ##  ##      ## ##      ##   ##   ##       ##        **
 **     #######   #####   ##   #####  ##  ##  ####    ##    #####   ##        **
 **           ##                                                    ##        **
 **                                                                           **
 **                                                ... make the atoms dance   **
 **                                                                           **
 **            Copyright (C) by CP2K developers group (2000-2023)             **
 **                      J. Chem. Phys. 152, 194103 (2020)                    **
 **                                                                           **
 *******************************************************************************

 DFT| Spin restricted Kohn-Sham (RKS) calculation                            RKS
 DFT| Multiplicity                                                             1
 DFT| Number of spin states                                                    1
 DFT| Charge                                                                   0
 DFT| Self-interaction correction (SIC)                                       NO
 DFT| Cutoffs: density                                              1.000000E-10
 DFT|          gradient                                             1.000000E-10
 DFT|          tau                                                  1.000000E-10
 DFT|          cutoff_smoothing_range                               0.000000E+00
 DFT| XC density smoothing                                                  NONE
 DFT| XC derivatives                                                          PW

 FUNCTIONAL| PADE:
 FUNCTIONAL| S. Goedecker, M. Teter and J. Hutter, Phys. Rev. B 54, 1703 (1996) 


 QS| Method:                                                                 GPW
 QS| Density plane wave grid type                        NON-SPHERICAL FULLSPACE
 QS| Number of grid levels:                                                    4
 QS| Density cutoff [a.u.]:                                                250.0
 QS| Multi grid cutoff [a.u.]: 1) grid level                               250.0
 QS|                           2) grid level                                83.3
 QS|                           3) grid level                                27.8
 QS|                           4) grid level                                 9.3
 QS| Grid level progression factor:                                          3.0
 QS| Relative density cutoff [a.u.]:                                        50.0
 QS| Interaction thresholds: eps_pgf_orb:                                1.0E-40
 QS|                         eps_filter_matrix:                          0.0E+00
 QS|                         eps_core_charge:                            1.0E-42
 QS|                         eps_rho_gspace:                             1.0E-40
 QS|                         eps_rho_rspace:                             1.0E-40
 QS|                         eps_gvg_rspace:                             1.0E-20
 QS|                         eps_ppl:                                    1.0E-02
 QS|                         eps_ppnl:                                   1.0E-22


 ATOMIC KIND INFORMATION

  1. Atomic kind: Mo                                    Number of atoms:     103

     Orbital Basis Set                              TZVP-MOLOPT-SR-GTH_robust_12

       Number of orbital shell sets:                                           1
       Number of orbital shells:                                              11
       Number of primitive Cartesian functions:                                7
       Number of Cartesian basis functions:                                   41
       Number of spherical basis functions:                                   35
       Norm type:                                                              2

       Normalised Cartesian orbitals:

                        Set   Shell   Orbital            Exponent    Coefficient

                          1       1    2s                2.540273      -1.345673
                                                         1.999996       0.727257
                                                         0.894040       0.537681
                                                         0.439257       0.138693
                                                         0.189498       0.017367
                                                         0.100000      -0.044162
                                                         0.110000       0.032945

                          1       2    3s                2.540273       0.114163
                                                         1.999996      -0.250260
                                                         0.894040       0.156531
                                                         0.439257       0.021259
                                                         0.189498      -0.094450
                                                         0.100000      -0.574755
                                                         0.110000       0.527481

                          1       3    4s                2.540273       0.776470
                                                         1.999996      -2.724036
                                                         0.894040       1.964078
                                                         0.439257      -0.908890
                                                         0.189498       0.239910
                                                         0.100000       1.543363
                                                         0.110000      -1.638373

                          1       4    5s                2.540273       0.193805
                                                         1.999996       0.674775
                                                         0.894040      -0.282582
                                                         0.439257       0.089402
                                                         0.189498      -0.137139
                                                         0.100000       0.405410
                                                         0.110000      -0.488537

                          1       5    3px               2.540273       3.691791
                                                         1.999996      -3.563133
                                                         0.894040      -0.805476
                                                         0.439257      -0.103576
                                                         0.189498       0.030607
                                                         0.100000      -0.059871
                                                         0.110000       0.070996
                          1       5    3py               2.540273       3.691791
                                                         1.999996      -3.563133
                                                         0.894040      -0.805476
                                                         0.439257      -0.103576
                                                         0.189498       0.030607
                                                         0.100000      -0.059871
                                                         0.110000       0.070996
                          1       5    3pz               2.540273       3.691791
                                                         1.999996      -3.563133
                                                         0.894040      -0.805476
                                                         0.439257      -0.103576
                                                         0.189498       0.030607
                                                         0.100000      -0.059871
                                                         0.110000       0.070996

                          1       6    4px               2.540273       0.129010
                                                         1.999996       0.099026
                                                         0.894040      -0.136173
                                                         0.439257      -0.038137
                                                         0.189498      -0.099149
                                                         0.100000      -0.222919
                                                         0.110000       0.214113
                          1       6    4py               2.540273       0.129010
                                                         1.999996       0.099026
                                                         0.894040      -0.136173
                                                         0.439257      -0.038137
                                                         0.189498      -0.099149
                                                         0.100000      -0.222919
                                                         0.110000       0.214113
                          1       6    4pz               2.540273       0.129010
                                                         1.999996       0.099026
                                                         0.894040      -0.136173
                                                         0.439257      -0.038137
                                                         0.189498      -0.099149
                                                         0.100000      -0.222919
                                                         0.110000       0.214113

                          1       7    5px               2.540273       0.471976
                                                         1.999996       0.044875
                                                         0.894040      -0.003198
                                                         0.439257      -0.397109
                                                         0.189498      -0.027230
                                                         0.100000       0.400879
                                                         0.110000      -0.427107
                          1       7    5py               2.540273       0.471976
                                                         1.999996       0.044875
                                                         0.894040      -0.003198
                                                         0.439257      -0.397109
                                                         0.189498      -0.027230
                                                         0.100000       0.400879
                                                         0.110000      -0.427107
                          1       7    5pz               2.540273       0.471976
                                                         1.999996       0.044875
                                                         0.894040      -0.003198
                                                         0.439257      -0.397109
                                                         0.189498      -0.027230
                                                         0.100000       0.400879
                                                         0.110000      -0.427107

                          1       8    4dx2              2.540273      -1.452114
                                                         1.999996       1.851969
                                                         0.894040       0.336748
                                                         0.439257       0.134418
                                                         0.189498       0.030638
                                                         0.100000       0.029183
                                                         0.110000      -0.028347
                          1       8    4dxy              2.540273      -2.515135
                                                         1.999996       3.207704
                                                         0.894040       0.583264
                                                         0.439257       0.232819
                                                         0.189498       0.053066
                                                         0.100000       0.050546
                                                         0.110000      -0.049099
                          1       8    4dxz              2.540273      -2.515135
                                                         1.999996       3.207704
                                                         0.894040       0.583264
                                                         0.439257       0.232819
                                                         0.189498       0.053066
                                                         0.100000       0.050546
                                                         0.110000      -0.049099
                          1       8    4dy2              2.540273      -1.452114
                                                         1.999996       1.851969
                                                         0.894040       0.336748
                                                         0.439257       0.134418
                                                         0.189498       0.030638
                                                         0.100000       0.029183
                                                         0.110000      -0.028347
                          1       8    4dyz              2.540273      -2.515135
                                                         1.999996       3.207704
                                                         0.894040       0.583264
                                                         0.439257       0.232819
                                                         0.189498       0.053066
                                                         0.100000       0.050546
                                                         0.110000      -0.049099
                          1       8    4dz2              2.540273      -1.452114
                                                         1.999996       1.851969
                                                         0.894040       0.336748
                                                         0.439257       0.134418
                                                         0.189498       0.030638
                                                         0.100000       0.029183
                                                         0.110000      -0.028347

                          1       9    5dx2              2.540273       1.091564
                                                         1.999996      -1.380594
                                                         0.894040      -0.266409
                                                         0.439257      -0.106871
                                                         0.189498       0.052951
                                                         0.100000       0.120262
                                                         0.110000      -0.123814
                          1       9    5dxy              2.540273       1.890645
                                                         1.999996      -2.391258
                                                         0.894040      -0.461434
                                                         0.439257      -0.185105
                                                         0.189498       0.091714
                                                         0.100000       0.208300
                                                         0.110000      -0.214453
                          1       9    5dxz              2.540273       1.890645
                                                         1.999996      -2.391258
                                                         0.894040      -0.461434
                                                         0.439257      -0.185105
                                                         0.189498       0.091714
                                                         0.100000       0.208300
                                                         0.110000      -0.214453
                          1       9    5dy2              2.540273       1.091564
                                                         1.999996      -1.380594
                                                         0.894040      -0.266409
                                                         0.439257      -0.106871
                                                         0.189498       0.052951
                                                         0.100000       0.120262
                                                         0.110000      -0.123814
                          1       9    5dyz              2.540273       1.890645
                                                         1.999996      -2.391258
                                                         0.894040      -0.461434
                                                         0.439257      -0.185105
                                                         0.189498       0.091714
                                                         0.100000       0.208300
                                                         0.110000      -0.214453
                          1       9    5dz2              2.540273       1.091564
                                                         1.999996      -1.380594
                                                         0.894040      -0.266409
                                                         0.439257      -0.106871
                                                         0.189498       0.052951
                                                         0.100000       0.120262
                                                         0.110000      -0.123814

                          1      10    6dx2              2.540273       0.186639
                                                         1.999996       0.227829
                                                         0.894040       1.446911
                                                         0.439257      -0.212124
                                                         0.189498      -0.009110
                                                         0.100000       0.033278
                                                         0.110000      -0.056981
                          1      10    6dxy              2.540273       0.323269
                                                         1.999996       0.394612
                                                         0.894040       2.506124
                                                         0.439257      -0.367409
                                                         0.189498      -0.015779
                                                         0.100000       0.057640
                                                         0.110000      -0.098694
                          1      10    6dxz              2.540273       0.323269
                                                         1.999996       0.394612
                                                         0.894040       2.506124
                                                         0.439257      -0.367409
                                                         0.189498      -0.015779
                                                         0.100000       0.057640
                                                         0.110000      -0.098694
                          1      10    6dy2              2.540273       0.186639
                                                         1.999996       0.227829
                                                         0.894040       1.446911
                                                         0.439257      -0.212124
                                                         0.189498      -0.009110
                                                         0.100000       0.033278
                                                         0.110000      -0.056981
                          1      10    6dyz              2.540273       0.323269
                                                         1.999996       0.394612
                                                         0.894040       2.506124
                                                         0.439257      -0.367409
                                                         0.189498      -0.015779
                                                         0.100000       0.057640
                                                         0.110000      -0.098694
                          1      10    6dz2              2.540273       0.186639
                                                         1.999996       0.227829
                                                         0.894040       1.446911
                                                         0.439257      -0.212124
                                                         0.189498      -0.009110
                                                         0.100000       0.033278
                                                         0.110000      -0.056981

                          1      11    5fx3              2.540273       0.802599
                                                         1.999996      -0.728191
                                                         0.894040      -0.320471
                                                         0.439257      -0.113251
                                                         0.189498      -0.010396
                                                         0.100000      -0.004689
                                                         0.110000       0.004443
                          1      11    5fx2y             2.540273       1.794666
                                                         1.999996      -1.628284
                                                         0.894040      -0.716595
                                                         0.439257      -0.253237
                                                         0.189498      -0.023245
                                                         0.100000      -0.010486
                                                         0.110000       0.009935
                          1      11    5fx2z             2.540273       1.794666
                                                         1.999996      -1.628284
                                                         0.894040      -0.716595
                                                         0.439257      -0.253237
                                                         0.189498      -0.023245
                                                         0.100000      -0.010486
                                                         0.110000       0.009935
                          1      11    5fxy2             2.540273       1.794666
                                                         1.999996      -1.628284
                                                         0.894040      -0.716595
                                                         0.439257      -0.253237
                                                         0.189498      -0.023245
                                                         0.100000      -0.010486
                                                         0.110000       0.009935
                          1      11    5fxyz             2.540273       3.108453
                                                         1.999996      -2.820270
                                                         0.894040      -1.241179
                                                         0.439257      -0.438619
                                                         0.189498      -0.040262
                                                         0.100000      -0.018162
                                                         0.110000       0.017207
                          1      11    5fxz2             2.540273       1.794666
                                                         1.999996      -1.628284
                                                         0.894040      -0.716595
                                                         0.439257      -0.253237
                                                         0.189498      -0.023245
                                                         0.100000      -0.010486
                                                         0.110000       0.009935
                          1      11    5fy3              2.540273       0.802599
                                                         1.999996      -0.728191
                                                         0.894040      -0.320471
                                                         0.439257      -0.113251
                                                         0.189498      -0.010396
                                                         0.100000      -0.004689
                                                         0.110000       0.004443
                          1      11    5fy2z             2.540273       1.794666
                                                         1.999996      -1.628284
                                                         0.894040      -0.716595
                                                         0.439257      -0.253237
                                                         0.189498      -0.023245
                                                         0.100000      -0.010486
                                                         0.110000       0.009935
                          1      11    5fyz2             2.540273       1.794666
                                                         1.999996      -1.628284
                                                         0.894040      -0.716595
                                                         0.439257      -0.253237
                                                         0.189498      -0.023245
                                                         0.100000      -0.010486
                                                         0.110000       0.009935
                          1      11    5fz3              2.540273       0.802599
                                                         1.999996      -0.728191
                                                         0.894040      -0.320471
                                                         0.439257      -0.113251
                                                         0.189498      -0.010396
                                                         0.100000      -0.004689
                                                         0.110000       0.004443

     RI Auxiliary Basis Set                                 def2-SVP-RIFIT-mod-2

       Number of orbital shell sets:                                          17
       Number of orbital shells:                                              17
       Number of primitive Cartesian functions:                               17
       Number of Cartesian basis functions:                                   91
       Number of spherical basis functions:                                   69
       Norm type:                                                              2

       Normalised Cartesian orbitals:

                        Set   Shell   Orbital            Exponent    Coefficient

                          1       1    1s                0.185545       0.201487

                          2       1    1px               0.223731       0.219330
                          2       1    1py               0.223731       0.219330
                          2       1    1pz               0.223731       0.219330

                          3       1    1dx2              0.346956       0.258160
                          3       1    1dxy              0.346956       0.447147
                          3       1    1dxz              0.346956       0.447147
                          3       1    1dy2              0.346956       0.258160
                          3       1    1dyz              0.346956       0.447147
                          3       1    1dz2              0.346956       0.258160

                          4       1    1s                0.360392       0.331506

                          5       1    1fx3              0.410523       0.198593
                          5       1    1fx2y             0.410523       0.444066
                          5       1    1fx2z             0.410523       0.444066
                          5       1    1fxy2             0.410523       0.444066
                          5       1    1fxyz             0.410523       0.769146
                          5       1    1fxz2             0.410523       0.444066
                          5       1    1fy3              0.410523       0.198593
                          5       1    1fy2z             0.410523       0.444066
                          5       1    1fyz2             0.410523       0.444066
                          5       1    1fz3              0.410523       0.198593

                          6       1    1px               0.498778       0.597481
                          6       1    1py               0.498778       0.597481
                          6       1    1pz               0.498778       0.597481

                          7       1    1gx4              0.570000       0.237187
                          7       1    1gx3y             0.570000       0.627538
                          7       1    1gx3z             0.570000       0.627538
                          7       1    1gx2y2            0.570000       0.810149
                          7       1    1gx2yz            0.570000       1.403218
                          7       1    1gx2z2            0.570000       0.810149
                          7       1    1gxy3             0.570000       0.627538
                          7       1    1gxy2z            0.570000       1.403218
                          7       1    1gxyz2            0.570000       1.403218
                          7       1    1gxz3             0.570000       0.627538
                          7       1    1gy4              0.570000       0.237187
                          7       1    1gy3z             0.570000       0.627538
                          7       1    1gy2z2            0.570000       0.810149
                          7       1    1gyz3             0.570000       0.627538
                          7       1    1gz4              0.570000       0.237187

                          8       1    1dx2              0.576698       0.628158
                          8       1    1dxy              0.576698       1.088002
                          8       1    1dxz              0.576698       1.088002
                          8       1    1dy2              0.576698       0.628158
                          8       1    1dyz              0.576698       1.088002
                          8       1    1dz2              0.576698       0.628158

                          9       1    1s                0.619083       0.497418

                         10       1    1s                1.092167       0.761424

                         11       1    1fx3              1.103628       1.837832
                         11       1    1fx2y             1.103628       4.109516
                         11       1    1fx2z             1.103628       4.109516
                         11       1    1fxy2             1.103628       4.109516
                         11       1    1fxyz             1.103628       7.117891
                         11       1    1fxz2             1.103628       4.109516
                         11       1    1fy3              1.103628       1.837832
                         11       1    1fy2z             1.103628       4.109516
                         11       1    1fyz2             1.103628       4.109516
                         11       1    1fz3              1.103628       1.837832

                         12       1    1px               1.390701       2.152694
                         12       1    1py               1.390701       2.152694
                         12       1    1pz               1.390701       2.152694

                         13       1    1dx2              1.439171       3.112475
                         13       1    1dxy              1.439171       5.390965
                         13       1    1dxz              1.439171       5.390965
                         13       1    1dy2              1.439171       3.112475
                         13       1    1dyz              1.439171       5.390965
                         13       1    1dz2              1.439171       3.112475

                         14       1    1gx4              1.615953       4.164995
                         14       1    1gx3y             1.615953      11.019542
                         14       1    1gx3z             1.615953      11.019542
                         14       1    1gx2y2            1.615953      14.226167
                         14       1    1gx2yz            1.615953      24.640444
                         14       1    1gx2z2            1.615953      14.226167
                         14       1    1gxy3             1.615953      11.019542
                         14       1    1gxy2z            1.615953      24.640444
                         14       1    1gxyz2            1.615953      24.640444
                         14       1    1gxz3             1.615953      11.019542
                         14       1    1gy4              1.615953       4.164995
                         14       1    1gy3z             1.615953      11.019542
                         14       1    1gy2z2            1.615953      14.226167
                         14       1    1gyz3             1.615953      11.019542
                         14       1    1gz4              1.615953       4.164995

                         15       1    1px               2.100661       3.604831
                         15       1    1py               2.100661       3.604831
                         15       1    1pz               2.100661       3.604831

                         16       1    1s                2.197983       1.286555

                         17       1    1dx2              2.302596       7.084198
                         17       1    1dxy              2.302596      12.270190
                         17       1    1dxz              2.302596      12.270190
                         17       1    1dy2              2.302596       7.084198
                         17       1    1dyz              2.302596      12.270190
                         17       1    1dz2              2.302596       7.084198

       Atomic covalent radius [Angstrom]:                                  1.300

       Atomic van der Waals radius [Angstrom]:                             1.670

     GTH Potential information for                                  GTH-PADE-q14

       Description:                       Goedecker-Teter-Hutter pseudopotential
                                           Goedecker et al., PRB 54, 1703 (1996)
                                          Hartwigsen et al., PRB 58, 3641 (1998)
                                                      Krack, TCA 114, 145 (2005)

       Gaussian exponent of the core charge distribution:               2.704164
       Electronic configuration (s p d ...):                           3   6   5

       Parameters of the local part of the GTH pseudopotential:

                          rloc        C1          C2          C3          C4
                        0.430000   16.237452    1.496536

       Parameters of the non-local part of the GTH pseudopotential:

                   l      r(l)      h(i,j,l)

                   0    0.376255    3.362426    2.048528
                                    2.048528   -5.289276
                   1    0.361734   -0.379571    1.718923
                                    1.718923   -4.067713
                   2    0.525828   -1.543211   -0.473760
                                   -0.473760    1.074388

  2. Atomic kind: Se                                    Number of atoms:     206

     Orbital Basis Set                                        TZVP-MOLOPT-SR-GTH

       Number of orbital shell sets:                                           1
       Number of orbital shells:                                               7
       Number of primitive Cartesian functions:                                4
       Number of Cartesian basis functions:                                   18
       Number of spherical basis functions:                                   17
       Norm type:                                                              2

       Normalised Cartesian orbitals:

                        Set   Shell   Orbital            Exponent    Coefficient

                          1       1    2s                1.465689       0.302678
                                                         1.029752      -0.073168
                                                         0.303575      -0.202711
                                                         0.107173      -0.059713

                          1       2    3s                1.465689      -0.155491
                                                         1.029752       0.241663
                                                         0.303575      -0.363851
                                                         0.107173       0.233571

                          1       3    4s                1.465689       1.273873
                                                         1.029752      -0.825574
                                                         0.303575       0.111847
                                                         0.107173       0.081995

                          1       4    3px               1.465689       0.612976
                                                         1.029752      -0.484874
                                                         0.303575      -0.234718
                                                         0.107173      -0.021524
                          1       4    3py               1.465689       0.612976
                                                         1.029752      -0.484874
                                                         0.303575      -0.234718
                                                         0.107173      -0.021524
                          1       4    3pz               1.465689       0.612976
                                                         1.029752      -0.484874
                                                         0.303575      -0.234718
                                                         0.107173      -0.021524

                          1       5    4px               1.465689       0.383325
                                                         1.029752      -0.329453
                                                         0.303575      -0.075164
                                                         0.107173       0.102417
                          1       5    4py               1.465689       0.383325
                                                         1.029752      -0.329453
                                                         0.303575      -0.075164
                                                         0.107173       0.102417
                          1       5    4pz               1.465689       0.383325
                                                         1.029752      -0.329453
                                                         0.303575      -0.075164
                                                         0.107173       0.102417

                          1       6    5px               1.465689       3.760520
                                                         1.029752      -2.704359
                                                         0.303575       0.485527
                                                         0.107173      -0.024362
                          1       6    5py               1.465689       3.760520
                                                         1.029752      -2.704359
                                                         0.303575       0.485527
                                                         0.107173      -0.024362
                          1       6    5pz               1.465689       3.760520
                                                         1.029752      -2.704359
                                                         0.303575       0.485527
                                                         0.107173      -0.024362

                          1       7    4dx2              1.465689       0.513111
                                                         1.029752      -0.664167
                                                         0.303575      -0.134856
                                                         0.107173      -0.008700
                          1       7    4dxy              1.465689       0.888735
                                                         1.029752      -1.150371
                                                         0.303575      -0.233577
                                                         0.107173      -0.015069
                          1       7    4dxz              1.465689       0.888735
                                                         1.029752      -1.150371
                                                         0.303575      -0.233577
                                                         0.107173      -0.015069
                          1       7    4dy2              1.465689       0.513111
                                                         1.029752      -0.664167
                                                         0.303575      -0.134856
                                                         0.107173      -0.008700
                          1       7    4dyz              1.465689       0.888735
                                                         1.029752      -1.150371
                                                         0.303575      -0.233577
                                                         0.107173      -0.015069
                          1       7    4dz2              1.465689       0.513111
                                                         1.029752      -0.664167
                                                         0.303575      -0.134856
                                                         0.107173      -0.008700

     RI Auxiliary Basis Set                                 def2-SVP-RIFIT-mod-3

       Number of orbital shell sets:                                          12
       Number of orbital shells:                                              12
       Number of primitive Cartesian functions:                               12
       Number of Cartesian basis functions:                                   44
       Number of spherical basis functions:                                   38
       Norm type:                                                              2

       Normalised Cartesian orbitals:

                        Set   Shell   Orbital            Exponent    Coefficient

                          1       1    1s                0.228146       0.235272

                          2       1    1dx2              0.255873       0.151514
                          2       1    1dxy              0.255873       0.262430
                          2       1    1dxz              0.255873       0.262430
                          2       1    1dy2              0.255873       0.151514
                          2       1    1dyz              0.255873       0.262430
                          2       1    1dz2              0.255873       0.151514

                          3       1    1px               0.271607       0.279490
                          3       1    1py               0.271607       0.279490
                          3       1    1pz               0.271607       0.279490

                          4       1    1s                0.368618       0.337165

                          5       1    1dx2              0.492940       0.477308
                          5       1    1dxy              0.492940       0.826723
                          5       1    1dxz              0.492940       0.826723
                          5       1    1dy2              0.492940       0.477308
                          5       1    1dyz              0.492940       0.826723
                          5       1    1dz2              0.492940       0.477308

                          6       1    1px               0.522961       0.633908
                          6       1    1py               0.522961       0.633908
                          6       1    1pz               0.522961       0.633908

                          7       1    1s                0.572587       0.469128

                          8       1    1fx3              0.711060       0.683508
                          8       1    1fx2y             0.711060       1.528371
                          8       1    1fx2z             0.711060       1.528371
                          8       1    1fxy2             0.711060       1.528371
                          8       1    1fxyz             0.711060       2.647216
                          8       1    1fxz2             0.711060       1.528371
                          8       1    1fy3              0.711060       0.683508
                          8       1    1fy2z             0.711060       1.528371
                          8       1    1fyz2             0.711060       1.528371
                          8       1    1fz3              0.711060       0.683508

                          9       1    1px               1.002555       1.429965
                          9       1    1py               1.002555       1.429965
                          9       1    1pz               1.002555       1.429965

                         10       1    1dx2              1.339632       2.745579
                         10       1    1dxy              1.339632       4.755483
                         10       1    1dxz              1.339632       4.755483
                         10       1    1dy2              1.339632       2.745579
                         10       1    1dyz              1.339632       4.755483
                         10       1    1dz2              1.339632       2.745579

                         11       1    1px               1.705131       2.777392
                         11       1    1py               1.705131       2.777392
                         11       1    1pz               1.705131       2.777392

                         12       1    1s                2.077977       1.233504

       Atomic covalent radius [Angstrom]:                                  1.160

       Atomic van der Waals radius [Angstrom]:                             1.900

     GTH Potential information for                                   GTH-PADE-q6

       Description:                       Goedecker-Teter-Hutter pseudopotential
                                           Goedecker et al., PRB 54, 1703 (1996)
                                          Hartwigsen et al., PRB 58, 3641 (1998)
                                                      Krack, TCA 114, 145 (2005)

       Gaussian exponent of the core charge distribution:               1.922338
       Electronic configuration (s p d ...):                               2   4

       Parameters of the local part of the GTH pseudopotential:

                          rloc        C1          C2          C3          C4
                        0.510000

       Parameters of the non-local part of the GTH pseudopotential:

                   l      r(l)      h(i,j,l)

                   0    0.432531    5.145131   -0.794740   -0.334051
                                   -0.794740    2.052009    0.862517
                                   -0.334051    0.862517   -1.369203
                   1    0.472473    2.858806    0.249604
                                    0.249604   -0.590670
                   2    0.613420    0.434829

  3. Atomic kind: W                                     Number of atoms:     112

     Orbital Basis Set                               TZVP-MOLOPT-SR-GTH_robust_1

       Number of orbital shell sets:                                           1
       Number of orbital shells:                                              11
       Number of primitive Cartesian functions:                                7
       Number of Cartesian basis functions:                                   41
       Number of spherical basis functions:                                   35
       Norm type:                                                              2

       Normalised Cartesian orbitals:

                        Set   Shell   Orbital            Exponent    Coefficient

                          1       1    2s                3.103254       0.432128
                                                         2.893835       0.497697
                                                         1.106151      -0.752121
                                                         0.501100      -0.216922
                                                         0.214447       0.032823
                                                         0.120000      -0.061173
                                                         0.140000       0.053490

                          1       2    3s                3.103254      -0.813729
                                                         2.893835       0.639864
                                                         1.106151       0.039972
                                                         0.501100      -0.059528
                                                         0.214447       0.077002
                                                         0.120000       0.481432
                                                         0.140000      -0.420972

                          1       3    4s                3.103254       1.541003
                                                         2.893835      -0.927602
                                                         1.106151      -0.272969
                                                         0.501100       0.064402
                                                         0.214447      -0.275240
                                                         0.120000       0.981259
                                                         0.140000      -0.858027

                          1       4    5s                3.103254       1.221199
                                                         2.893835      -1.384344
                                                         1.106151       0.313815
                                                         0.501100      -0.289021
                                                         0.214447       0.251699
                                                         0.120000       0.180363
                                                         0.140000      -0.157712

                          1       5    3px               3.103254       6.587488
                                                         2.893835      -5.430631
                                                         1.106151      -0.972560
                                                         0.501100      -0.261614
                                                         0.214447      -0.013936
                                                         0.120000       0.008777
                                                         0.140000      -0.008290
                          1       5    3py               3.103254       6.587488
                                                         2.893835      -5.430631
                                                         1.106151      -0.972560
                                                         0.501100      -0.261614
                                                         0.214447      -0.013936
                                                         0.120000       0.008777
                                                         0.140000      -0.008290
                          1       5    3pz               3.103254       6.587488
                                                         2.893835      -5.430631
                                                         1.106151      -0.972560
                                                         0.501100      -0.261614
                                                         0.214447      -0.013936
                                                         0.120000       0.008777
                                                         0.140000      -0.008290

                          1       6    4px               3.103254      -0.215503
                                                         2.893835       0.319008
                                                         1.106151      -0.250093
                                                         0.501100      -0.016350
                                                         0.214447       0.058331
                                                         0.120000       0.336378
                                                         0.140000      -0.317701
                          1       6    4py               3.103254      -0.215503
                                                         2.893835       0.319008
                                                         1.106151      -0.250093
                                                         0.501100      -0.016350
                                                         0.214447       0.058331
                                                         0.120000       0.336378
                                                         0.140000      -0.317701
                          1       6    4pz               3.103254      -0.215503
                                                         2.893835       0.319008
                                                         1.106151      -0.250093
                                                         0.501100      -0.016350
                                                         0.214447       0.058331
                                                         0.120000       0.336378
                                                         0.140000      -0.317701

                          1       7    5px               3.103254       1.477813
                                                         2.893835      -1.135541
                                                         1.106151       1.380857
                                                         0.501100       0.146858
                                                         0.214447      -0.336829
                                                         0.120000       0.360608
                                                         0.140000      -0.340586
                          1       7    5py               3.103254       1.477813
                                                         2.893835      -1.135541
                                                         1.106151       1.380857
                                                         0.501100       0.146858
                                                         0.214447      -0.336829
                                                         0.120000       0.360608
                                                         0.140000      -0.340586
                          1       7    5pz               3.103254       1.477813
                                                         2.893835      -1.135541
                                                         1.106151       1.380857
                                                         0.501100       0.146858
                                                         0.214447      -0.336829
                                                         0.120000       0.360608
                                                         0.140000      -0.340586

                          1       8    4dx2              3.103254      -0.073730
                                                         2.893835       0.215072
                                                         1.106151       0.648029
                                                         0.501100       0.200612
                                                         0.214447       0.032511
                                                         0.120000       0.039404
                                                         0.140000      -0.040198
                          1       8    4dxy              3.103254      -0.127705
                                                         2.893835       0.372516
                                                         1.106151       1.122419
                                                         0.501100       0.347470
                                                         0.214447       0.056311
                                                         0.120000       0.068250
                                                         0.140000      -0.069626
                          1       8    4dxz              3.103254      -0.127705
                                                         2.893835       0.372516
                                                         1.106151       1.122419
                                                         0.501100       0.347470
                                                         0.214447       0.056311
                                                         0.120000       0.068250
                                                         0.140000      -0.069626
                          1       8    4dy2              3.103254      -0.073730
                                                         2.893835       0.215072
                                                         1.106151       0.648029
                                                         0.501100       0.200612
                                                         0.214447       0.032511
                                                         0.120000       0.039404
                                                         0.140000      -0.040198
                          1       8    4dyz              3.103254      -0.127705
                                                         2.893835       0.372516
                                                         1.106151       1.122419
                                                         0.501100       0.347470
                                                         0.214447       0.056311
                                                         0.120000       0.068250
                                                         0.140000      -0.069626
                          1       8    4dz2              3.103254      -0.073730
                                                         2.893835       0.215072
                                                         1.106151       0.648029
                                                         0.501100       0.200612
                                                         0.214447       0.032511
                                                         0.120000       0.039404
                                                         0.140000      -0.040198

                          1       9    5dx2              3.103254       0.120212
                                                         2.893835      -0.247034
                                                         1.106151      -0.585668
                                                         0.501100      -0.200109
                                                         0.214447       0.050368
                                                         0.120000       0.106563
                                                         0.140000      -0.108711
                          1       9    5dxy              3.103254       0.208214
                                                         2.893835      -0.427875
                                                         1.106151      -1.014406
                                                         0.501100      -0.346599
                                                         0.214447       0.087239
                                                         0.120000       0.184573
                                                         0.140000      -0.188293
                          1       9    5dxz              3.103254       0.208214
                                                         2.893835      -0.427875
                                                         1.106151      -1.014406
                                                         0.501100      -0.346599
                                                         0.214447       0.087239
                                                         0.120000       0.184573
                                                         0.140000      -0.188293
                          1       9    5dy2              3.103254       0.120212
                                                         2.893835      -0.247034
                                                         1.106151      -0.585668
                                                         0.501100      -0.200109
                                                         0.214447       0.050368
                                                         0.120000       0.106563
                                                         0.140000      -0.108711
                          1       9    5dyz              3.103254       0.208214
                                                         2.893835      -0.427875
                                                         1.106151      -1.014406
                                                         0.501100      -0.346599
                                                         0.214447       0.087239
                                                         0.120000       0.184573
                                                         0.140000      -0.188293
                          1       9    5dz2              3.103254       0.120212
                                                         2.893835      -0.247034
                                                         1.106151      -0.585668
                                                         0.501100      -0.200109
                                                         0.214447       0.050368
                                                         0.120000       0.106563
                                                         0.140000      -0.108711

                          1      10    6dx2              3.103254      10.228451
                                                         2.893835     -10.154808
                                                         1.106151       0.833144
                                                         0.501100      -0.004804
                                                         0.214447      -0.129172
                                                         0.120000       0.182950
                                                         0.140000      -0.186637
                          1      10    6dxy              3.103254      17.716196
                                                         2.893835     -17.588644
                                                         1.106151       1.443047
                                                         0.501100      -0.008321
                                                         0.214447      -0.223732
                                                         0.120000       0.316879
                                                         0.140000      -0.323264
                          1      10    6dxz              3.103254      17.716196
                                                         2.893835     -17.588644
                                                         1.106151       1.443047
                                                         0.501100      -0.008321
                                                         0.214447      -0.223732
                                                         0.120000       0.316879
                                                         0.140000      -0.323264
                          1      10    6dy2              3.103254      10.228451
                                                         2.893835     -10.154808
                                                         1.106151       0.833144
                                                         0.501100      -0.004804
                                                         0.214447      -0.129172
                                                         0.120000       0.182950
                                                         0.140000      -0.186637
                          1      10    6dyz              3.103254      17.716196
                                                         2.893835     -17.588644
                                                         1.106151       1.443047
                                                         0.501100      -0.008321
                                                         0.214447      -0.223732
                                                         0.120000       0.316879
                                                         0.140000      -0.323264
                          1      10    6dz2              3.103254      10.228451
                                                         2.893835     -10.154808
                                                         1.106151       0.833144
                                                         0.501100      -0.004804
                                                         0.214447      -0.129172
                                                         0.120000       0.182950
                                                         0.140000      -0.186637

                          1      11    5fx3              3.103254      -2.200951
                                                         2.893835       2.432659
                                                         1.106151      -0.371072
                                                         0.501100      -0.177479
                                                         0.214447      -0.017113
                                                         0.120000      -0.003108
                                                         0.140000       0.003424
                          1      11    5fx2y             3.103254      -4.921477
                                                         2.893835       5.439590
                                                         1.106151      -0.829742
                                                         0.501100      -0.396854
                                                         0.214447      -0.038265
                                                         0.120000      -0.006949
                                                         0.140000       0.007657
[...]
 flops    17 x    17 x   352        3318172042240     100.0%      0.0%      0.0%
 flops    35 x    17 x   352        3407840128000     100.0%      0.0%      0.0%
 flops    17 x    35 x   352        3407840128000     100.0%      0.0%      0.0%
 flops    35 x    35 x   352        3524387328000     100.0%      0.0%      0.0%
 flops    17 x    17 x   384        5203497066240     100.0%      0.0%      0.0%
 flops    35 x    17 x   384        5344112928000     100.0%      0.0%      0.0%
 flops    17 x    35 x   384        5344112928000     100.0%      0.0%      0.0%
 flops    35 x    35 x   384        5526880128000     100.0%      0.0%      0.0%
 flops inhomo. stacks                           0       0.0%      0.0%      0.0%
 flops total                        43.930591E+12     100.0%      0.0%      0.0%
 flops max/rank                     31.693464E+09     100.0%      0.0%      0.0%
 matmuls inhomo. stacks                         0       0.0%      0.0%      0.0%
 matmuls total                          133333900     100.0%      0.0%      0.0%
 number of processed stacks               3212800     100.0%      0.0%      0.0%
 average stack size                                    41.5       0.0       0.0
 marketing flops                    15.114906E+12
 -------------------------------------------------------------------------------
 # multiplications                             14
 max memory usage/rank               1.877217E+09
 # max total images/rank                        1
 # max 3D layers                                1
 # MPI messages exchanged                 1747200
 MPI messages size (bytes):
  total size                         1.800244E+12
  min size                           0.000000E+00
  max size                           1.164288E+06
  average size                       1.030359E+06
 MPI breakdown and total messages size (bytes):
             size <=      128               43680                        0
       128 < size <=     8192                   0                        0
      8192 < size <=    32768                   0                        0
     32768 < size <=   131072               18720               1943978400
    131072 < size <=  4194304             1684800            1798300361520
   4194304 < size <= 16777216                   0                        0
  16777216 < size                               0                        0
 -------------------------------------------------------------------------------
 -                                                                             -
 -                      DBCSR MESSAGE PASSING PERFORMANCE                      -
 -                                                                             -
 -------------------------------------------------------------------------------
 ROUTINE             CALLS      AVE VOLUME [Bytes]
 MP_Bcast               48                     12.
 MP_Allreduce          199                     18.
 MP_Alltoall         99327                7009239.
 MP_ISend             2240                 495238.
 MP_IRecv             2240                 494320.
 -------------------------------------------------------------------------------

 -------------------------------------------------------------------------------
 -                                                                             -
 -                                DBM STATISTICS                               -
 -                                                                             -
 -------------------------------------------------------------------------------
    M  x    N  x    K                                          COUNT     PERCENT
   ??  x    ?  x  ???                                    87579629984       2.20%
   ??  x    ?  x >999                                    18370202593       0.46%
  ???  x   ??  x   ??                                   456298899578      11.47%
    ?  x   ??  x >999                                    17812533078       0.45%
    ?  x    ?  x    ?                                  1284600014252      32.30%
    ?  x   ??  x  ???                                    85900321188       2.16%
    ?  x >999  x    ?                                   107368654691       2.70%
   ??  x   ??  x  ???                                   459535108306      11.55%
    ?  x    ?  x >999                                    81483450815       2.05%
   ??  x   ??  x >999                                     4148754827       0.10%
    ?  x    ?  x  ???                                   390672596576       9.82%
    ?  x  ???  x   ??                                   128522483911       3.23%
   ??  x  ???  x   ??                                    29127572672       0.73%
    ?  x  ???  x    ?                                   574464202113      14.44%
   ??  x >999  x    ?                                    24359322291       0.61%
    ?  x >999  x   ??                                    24326076379       0.61%
   ??  x   ??  x   ??                                    66800541797       1.68%
   ??  x  ???  x    ?                                   130320006484       3.28%
   ??  x >999  x   ??                                     5513152832       0.14%
 -------------------------------------------------------------------------------

 -------------------------------------------------------------------------------
 -                                                                             -
 -                                GRID STATISTICS                              -
 -                                                                             -
 -------------------------------------------------------------------------------
 LP    KERNEL             BACKEND                              COUNT     PERCENT
 5     collocate general  REF                               24574979      23.16%
 5     integrate general  REF                               24574979      23.16%
 4     collocate general  REF                               18645385      17.57%
 4     integrate general  REF                               18645385      17.57%
 6     collocate general  REF                                8281812       7.81%
 6     integrate general  REF                                8281812       7.81%
 0     collocate general  REF                                2064000       1.95%
 0     integrate general  REF                                1032000       0.97%
 -------------------------------------------------------------------------------

 MEMORY| Estimated peak process memory [MiB]                               14654

 -------------------------------------------------------------------------------
 ----                             MULTIGRID INFO                            ----
 -------------------------------------------------------------------------------
 count for grid        1:      168164170          cutoff [a.u.]          250.00
 count for grid        2:      105147590          cutoff [a.u.]           83.33
 count for grid        3:       77629438          cutoff [a.u.]           27.78
 count for grid        4:         460800          cutoff [a.u.]            9.26
 total gridlevel count  :      351401998

 -------------------------------------------------------------------------------
 -                                                                             -
 -                         MESSAGE PASSING PERFORMANCE                         -
 -                                                                             -
 -------------------------------------------------------------------------------

 ROUTINE             CALLS      AVE VOLUME [Bytes]
 MP_Group            10310
 MP_Bcast            26149                 670029.
 MP_Allreduce        18679                  19278.
 MP_Sync             15226
 MP_Alltoall          6660                 352154.
 MP_SendRecv         52767                  26043.
 MP_ISendRecv        52767                  26043.
 MP_Wait             67073
 MP_comm_split        6109
 MP_ISend          2216290                 195336.
 MP_IRecv          1980100                 210314.
 MP_Recv               463                3797760.
 -------------------------------------------------------------------------------


 -------------------------------------------------------------------------------
 -                                                                             -
 -                           R E F E R E N C E S                               -
 -                                                                             -
 -------------------------------------------------------------------------------
 
 CP2K version 2023.1 (Development Version), the CP2K developers group (2023).
 CP2K is freely available from https://www.cp2k.org/ .

 Kuehne,Thomas D.; Iannuzzi,Marcella; Del Ben,Mauro;
 Rybkin,Vladimir V.; Seewald,Patrick; Stein,Frederick; Laino,Teodoro;
 Khaliullin,Rustam Z.; Schuett,Ole; Schiffmann,Florian; Golze,Dorothea;
 Wilhelm,Jan; Chulkov,Sergey; Bani-Hashemian,Mohammad Hossein;
 Weber,Valery; Borstnik,Urban; Taillefumier,Mathieu;
 Jakobovits,Alice Shoshana; Lazzaro,Alfio; Pabst,Hans; Mueller,Tiziano;
 Schade,Robert; Guidon,Manuel; Andermatt,Samuel; Holmberg,Nico;
 Schenter,Gregory K.; Hehn,Anna; Bussy,Augustin; Belleflamme,Fabian;
 Tabacchi,Gloria; Gloess,Andreas; Lass,Michael; Bethune,Iain;
 Mundy,Christopher J.; Plessl,Christian; Watkins,Matt;
 VandeVondele,Joost; Krack,Matthias; Hutter,Juerg. 
 The Journal of Chemical Physics, 152 (19), (2020). 
 CP2K: An electronic structure and molecular dynamics software package -
 Quickstep: Efficient and accurate electronic structure calculations.
 https://doi.org/10.1063/5.0007045

 Wilhelm, J; Golze, D; Talirz, L; Hutter, J; Pignedoli, CA. 
 JOURNAL OF PHYSICAL CHEMISTRY LETTERS, 9, 306-312 (2018). 
 Toward GW calculations on thousands of atoms.
 https://doi.org/10.1021/acs.jpclett.7b02740

 Wilhelm, J; Hutter, J. PHYSICAL REVIEW B, 95, 235123 (2017). 
 Periodic GW calculations in the Gaussian and plane-waves scheme.
 https://doi.org/10.1103/PhysRevB.95.235123

 Wilhelm, J; Del Ben, M; Hutter, J. 
 JOURNAL OF CHEMICAL THEORY AND COMPUTATION, 12, 3623-3635 (2016). 
 GW in the Gaussian and plane waves scheme with application to linear acenes.
 https://doi.org/10.1021/acs.jctc.6b00380

 Wilhelm, J; Seewald, P; Del Ben, M; Hutter, J. 
 JOURNAL OF CHEMICAL THEORY AND COMPUTATION, 12, 5851-5859 (2016). 
 Large-Scale Cubic-Scaling Random Phase Approximation Correlation.
 https://doi.org/10.1021/acs.jctc.6b00840

 Schuett, Ole; Messmer, Peter; Hutter, Juerg; VandeVondele, Joost. 
 Electronic Structure Calculations on Graphics Processing Units, John
 Wiley & Sons, Ltd, 173-190 (2016). 
 GPU-Accelerated Sparse Matrix-Matrix Multiplication for
 Linear Scaling Density Functional Theory.
 https://doi.org/10.1002/9781118670712.ch8

 Del Ben, M; Schuett, O; Wentz, T; Messmer, P; Hutter, J;
 VandeVondele, J. 
 COMPUTER PHYSICS COMMUNICATIONS, 187, 120-129 (2015). 
 Enabling simulation at the fifth rung of DFT: Large scale RPA
 calculations with excellent time to solution.
 https://doi.org/10.1016/j.cpc.2014.10.021

 Borstnik, U; VandeVondele, J; Weber, V; Hutter, J. 
 PARALLEL COMPUTING, 40 (5-6), 47-58 (2014). 
 Sparse matrix multiplication: The distributed block-compressed sparse
 row library.
 https://doi.org/10.1016/j.parco.2014.03.012

 Hutter, J; Iannuzzi, M; Schiffmann, F; VandeVondele, J. 
 WIREs Comput Mol Sci., 4 (1), 15-25 (2014). 
 CP2K: atomistic simulations of condensed matter systems.
 https://doi.org/10.1002/wcms.1159

 Del Ben, M; Hutter, J; VandeVondele, J. 
 JOURNAL OF CHEMICAL THEORY AND COMPUTATION, 9 (6), 2654-2671 (2013). 
 Electron Correlation in the Condensed Phase from a Resolution of
 Identity Approach Based on the Gaussian and Plane Waves Scheme.
 https://doi.org/10.1021/ct4002202

 Del Ben, M; Hutter, J; VandeVondele, J. 
 JOURNAL OF CHEMICAL THEORY AND COMPUTATION, 8 (11), 4177-4188 (2012). 
 Second-Order Moller-Plesset Perturbation Theory in the Condensed Phase:
 An Efficient and Massively Parallel Gaussian and Plane Waves Approach.
 https://doi.org/10.1021/ct300531w

 VandeVondele, J; Hutter, J. 
 JOURNAL OF CHEMICAL PHYSICS, 127 (11), 114105 (2007). 
 Gaussian basis sets for accurate calculations on molecular systems in
 gas and condensed phases.
 https://doi.org/10.1063/1.2770708

 Krack, M. 
 THEORETICAL CHEMISTRY ACCOUNTS, 114 (1-3), 145-152 (2005). 
 Pseudopotentials for H to Kr optimized for gradient-corrected
 exchange-correlation functionals.
 https://doi.org/10.1007/s00214-005-0655-y

 VandeVondele, J; Krack, M; Mohamed, F; Parrinello, M; Chassaing, T;
 Hutter, J. COMPUTER PHYSICS COMMUNICATIONS, 167 (2), 103-128 (2005). 
 QUICKSTEP: Fast and accurate density functional calculations using a
 mixed Gaussian and plane waves approach.
 https://doi.org/10.1016/j.cpc.2004.12.014

 Frigo, M; Johnson, SG. 
 PROCEEDINGS OF THE IEEE, 93 (2), 216-231 (2005). 
 The design and implementation of FFTW3.
 https://doi.org/10.1109/JPROC.2004.840301

 Hartwigsen, C; Goedecker, S; Hutter, J. 
 PHYSICAL REVIEW B, 58 (7), 3641-3662 (1998). 
 Relativistic separable dual-space Gaussian pseudopotentials from H to Rn.
 https://doi.org/10.1103/PhysRevB.58.3641

 Lippert, G; Hutter, J; Parrinello, M. 
 MOLECULAR PHYSICS, 92 (3), 477-487 (1997). 
 A hybrid Gaussian and plane wave density functional scheme.
 https://doi.org/10.1080/002689797170220

 Goedecker, S; Teter, M; Hutter, J. 
 PHYSICAL REVIEW B, 54 (3), 1703-1710 (1996). 
 Separable dual-space Gaussian pseudopotentials.
 https://doi.org/10.1103/PhysRevB.54.1703


 -------------------------------------------------------------------------------
 -                                                                             -
 -                                T I M I N G                                  -
 -                                                                             -
 -------------------------------------------------------------------------------
 SUBROUTINE                       CALLS  ASD         SELF TIME        TOTAL TIME
                                MAXIMUM       AVERAGE  MAXIMUM  AVERAGE  MAXIMUM
 CP2K                                 1  1.0     0.03     0.07 56406.12 56406.12
 qs_energies                          1  2.0     0.00     0.00 56404.13 56404.34
 mp2_main                             1  3.0     0.00     0.00 56181.21 56181.42
 mp2_gpw_main                         1  4.0     0.01     0.07 56165.65 56165.86
 rpa_ri_compute_en                    1  5.0     0.00     0.04 52345.14 52345.35
 rpa_num_int                          1  6.0     0.00     0.00 50840.32 50840.51
 dbt_total                         3250  9.8     0.04     0.07 31017.71 31017.77
 dbt_contract                      1360 11.0     0.33     0.59 28799.61 28801.31
 dbt_tas_total                     2112 13.4  1219.88  1475.08 28420.15 28420.18
 dbt_tas_multiply                  1891 12.8     0.01     0.01 28374.50 28374.54
 compute_QP_energies                  1  7.0     0.00     0.00 24630.48 24630.49
 compute_self_energy_cubic_gw_k       1  8.0     0.25     0.33 24629.94 24630.28
 dbt_tas_dbm                       1891 14.8     0.01     0.01 22705.09 22705.15
 dbm_multiply                      1891 16.8 17260.06 19913.81 17260.06 19913.81
 rpa_num_int_RPA_matrix_operati      10  7.0     0.00     0.00 17527.05 17527.48
 invert_eps_compute_W_and_Erpa_      10  8.0     0.00     0.01 17526.29 17526.34
 compute_Q_kp_RPA                   260  9.0     1.22     1.49 13090.85 13103.45
 cp_cfm_power                       312  9.7     1.36     1.59 12754.99 12765.30
 tensor_operation_3c_W              176  9.0     0.00     0.00 12576.35 12587.35
 cp_cfm_heevd                       441 10.2 12055.85 12070.06 12055.85 12070.06
 contract_to_self_energy            352  9.0     0.02     0.02 10032.13 10042.71
 dbt_tas_mm_3N                      352 16.5     0.00     0.00  7617.79  9382.19
 mp_sync                          15226 12.7  7025.68  9134.34  7025.68  9134.34
 compute_mat_P_omega                  1  7.0     0.00     0.00  8651.08  8651.83
 compute_mat_P_omega_contract        10  8.0     9.33    12.53  8597.55  8597.62
 parallel_gemm_cfm                 4194 10.2     0.02     0.02  8345.64  8396.59
 parallel_gemm_cfm_gemm            4194 11.2     0.01     0.03  8345.63  8396.58
 cp_cfm_gemm                       4194 12.2  8345.61  8396.56  8345.61  8396.56
 dbt_tas_mm_2                       513 15.0     0.00     0.00  7660.79  7660.81
 compute_mat_P_omega_calc_P_t       160  9.0     0.00     0.00  4063.34  4063.34
 mp2_ri_gpw_compute_in                1  5.0     0.00     0.01  3820.42  3820.43
 compute_Wc_real_space_tau_GW       260  9.0     0.00     0.00  3783.63  3785.13
 get_2c_integrals                     1  6.0     0.00     0.00  3215.50  3215.50
 compute_Wc_real_space_tau_GW_3     260 10.0     0.00     0.00  2656.38  2667.74
 dbt_tas_mm_3T                      704 16.5     0.00     0.00  1987.95  2192.49
 inversion_of_M_and_mult_with_c       1  7.0     0.00     0.00  2101.65  2101.68
 dbt_tas_mm_1N                      322 15.0     0.00     0.00  1652.44  2056.13
 trafo_to_mo_and_kpoints             21  9.0     0.81     0.86  1872.92  1872.93
 compute_mat_P_omega_calc_M_occ     160  9.0     9.31    12.51  1808.21  1808.22
 compute_mat_P_omega_calc_M_vir     160  9.0     0.00     0.00  1706.99  1707.00
 dbt_tas_replicate                 1629 15.0   703.00   773.51  1560.81  1625.63
 get_bandstruc_and_k_dependent_       1  6.0     0.00     0.00  1504.81  1504.84
 create_kp_and_calc_kp_orbitals       3  7.0     0.01     0.01  1504.81  1504.83
 cp_cfm_geeig                       129  8.0     0.01     0.01  1476.23  1479.16
 mp_waitall_2                      9546 16.8  1127.01  1298.88  1127.01  1298.88
 dbm_redistribute                  4242 15.8  1141.34  1260.34  1141.34  1260.34
 dbt_copy                          1617 10.8     0.22     0.25  1113.00  1239.02
 dbt_reshape                       1595 11.8   359.39   395.57  1103.63  1229.01
 compute_Wc_real_space_tau_GW_2     260 10.0     0.15     0.18  1073.93  1081.42
 cp_cfm_cholesky_invert             260 11.0  1063.33  1064.88  1063.33  1064.88
 convert_to_new_pgrid              5673 14.8    70.19   104.73   787.18   828.71
 dbt_communicate_buffer            1595 12.8     1.39     1.56   678.35   812.31
 mp_sum_l                         11244 14.4   578.97   798.62   578.97   798.62
 dbt_tas_estimate_result_nze        531 14.0    19.10    25.20   798.29   798.33
 compute_V_by_lattice_sum             1  7.0     0.00     0.00   723.83   723.83
 build_2c_coulomb_matrix_kp           2  8.0     0.00     0.00   603.21   719.79
 lattice_sum                          2  9.0    24.09    27.16   603.21   719.78
 compute_v_transl                 13312 10.0   570.73   684.75   578.86   693.37
 cp_cfm_triangular_multiply         387  9.0   612.50   619.97   612.50   619.97
 mp_alltoall_i                     6452 15.1   528.35   591.62   528.35   591.62
 cp_cfm_cholesky_decompose          389  9.7   577.23   577.44   577.23   577.44
 -------------------------------------------------------------------------------

 The number of warnings for this run is : 1
 
 -------------------------------------------------------------------------------
  **** **** ******  **  PROGRAM ENDED AT                 2023-03-28 09:41:44.131
 ***** ** ***  *** **   PROGRAM RAN ON                              f01r01c01s01
 **    ****   ******    PROGRAM RAN BY                                   di76zil
 ***** **    ** ** **   PROGRAM PROCESS ID                               1594998
  **** **  *******  **  PROGRAM STOPPED IN /hppfs/work/pn72pa/di76zil/11_2D_peri
                                           odic_materials/13_MoSe2_WS2_heterostr
                                           ucture/02_9.3deg_645_atoms/2_GW/11_as
                                           _10_but_regularization_1e-2
