     645
 i =       21, E =    -18916.2635001532
 Mo        -0.0006395759        0.0000155071       13.4691446930
 Mo        34.9853516004       28.6202074203       13.5193147275
 Mo        38.2245931123       28.0583076751       13.5289131936
 Mo        41.4649640600       27.4873309800       13.5224466417
 Mo        44.7080877689       26.9190089015       13.4999553345
 Mo        47.9532603487       26.3622412762       13.4803187408
 Mo        19.9284798320       28.3482455198       13.4803639269
 Mo        23.1682709687       27.7883892404       13.4996559614
 Mo        26.4013559169       27.2185984358       13.5083543637
 Mo        29.6327418303       26.6510998180       13.5055041516
 Mo        32.8687149064       26.0937417150       13.5040912053
 Mo        36.1106240844       25.5388290753       13.5113618205
 Mo        39.3559286464       24.9744908116       13.5176598221
 Mo        42.6028966023       24.4031586504       13.5121537116
 Mo        45.8485323034       23.8364270746       13.4995658739
 Mo        17.8296224517       25.8130338938       13.4818338239
 Mo        21.0688558988       25.2594715639       13.5000052602
 Mo        24.3002653136       24.6942104172       13.5122376209
 Mo        27.5284800341       24.1245239481       13.5059055508
 Mo        30.7613898325       23.5631722771       13.4907237420
 Mo        34.0027182773       23.0113859873       13.4852433894
 Mo        37.2489619168       22.4573335252       13.4945747417
 Mo        40.4954664350       21.8922659291       13.5058766815
 Mo        43.7385878047       21.3213588549       13.5083026019
 Mo        15.7235306285       23.2804294146       13.4960452549
 Mo        18.9636585444       22.7279143723       13.5086288648
 Mo        22.1982111949       22.1666987480       13.5224825252
 Mo        25.4289198906       21.5965816002       13.5177401733
 Mo        28.6623333244       21.0304136905       13.4946122492
 Mo        31.9030565734       20.4762082217       13.4734606462
 Mo        35.1486425747       19.9279146241       13.4734671317
 Mo        38.3929119568       19.3731525681       13.4907644530
 Mo        41.6314648799       18.8066213023       13.5055612256
 Mo        13.6097663711       20.7558116242       13.5067638483
 Mo        16.8482947258       20.1997376702       13.5130040146
 Mo        20.0865721574       19.6425592070       13.5260095044
 Mo        23.3239118089       19.0749424088       13.5289384050
 Mo        26.5628083763       18.5038841401       13.5114175393
 Mo        29.8055993767       17.9420802440       13.4852626666
 Mo        33.0509765139       17.3913390528       13.4734517550
 Mo        36.2943483485       16.8419948893       13.4853007120
 Mo        39.5307555721       16.2828690690       13.5042115281
 Mo        11.4967827169       18.2361560102       13.5083374413
 Mo        14.7308350158       17.6737679175       13.5070378337
 Mo        17.9696003916       17.1188835651       13.5128513590
 Mo        21.2120216360       16.5587017059       13.5215219496
 Mo        24.4569253242       15.9887046112       13.5193388532
 Mo        27.7032050291       15.4188436646       13.5041081708
 Mo        30.9483989449       14.8591192737       13.4906855346
 Mo        34.1913558139       14.3077140284       13.4945666459
 Mo        37.4291799771       13.7527772871       13.5114377571
 Mo        40.6603541968       13.1865776683       13.5194388173
 Mo         9.3921578510       15.7136142888       13.5097255075
 Mo        12.6217870638       15.1465702550       13.5005493003
 Mo        15.8582920564       14.5902561552       13.4921051994
 Mo        19.1020145467       14.0377760806       13.4962066133
 Mo        22.3489098029       13.4767219372       13.5063693198
 Mo        25.5954921917       12.9065466454       13.5096420281
 Mo        28.8385453824       12.3376931836       13.5054745796
 Mo        32.0787448815       11.7786365831       13.5057999823
 Mo        35.3177681417       11.2244126405       13.5176527968
 Mo        38.5540801969       10.6622698159       13.5289464049
 Mo        10.5216391251       12.6168950524       13.5064625939
 Mo        13.7568516612       12.0565112219       13.4839285968
 Mo        16.9998765500       11.5063259342       13.4736524542
 Mo        20.2460130185       10.9551355789       13.4839188833
 Mo        23.4896397638       10.3931044655       13.5005553593
 Mo        26.7277849161        9.8225948837       13.5083444396
 Mo        29.9627982688        9.2554579041       13.5082851043
 Mo        33.1995049896        8.6980835396       13.5121100124
 Mo        36.4394254934        8.1414755490       13.5224061494
 Mo         8.4209438629       10.0913936302       13.5215989412
 Mo        11.6591352332        9.5244828799       13.4962633973
 Mo        14.9025264191        8.9697216150       13.4736618870
 Mo        18.1479834505        8.4217179662       13.4736730748
 Mo        21.3895814119        7.8683906076       13.4921784993
 Mo        24.6237060150        7.3030226665       13.5071456758
 Mo        27.8533448708        6.7328371476       13.5068519773
 Mo        31.0859165652        6.1706225690       13.4995918943
 Mo        34.3257186026        5.6169636353       13.4999278219
 Mo         6.3129883406        7.5748226329       13.5260177083
 Mo         9.5570172563        7.0032633806       13.5128861630
 Mo        12.8025238965        6.4391085393       13.4921100980
 Mo        16.0475306061        5.8861102105       13.4838921972
 Mo        19.2892051198        5.3355106479       13.4962577507
 Mo        22.5237228537        4.7756261383       13.5129446095
 Mo        25.7524485622        4.2062491233       13.5131325121
 Mo        28.9827665324        3.6399343796       13.4961247535
 Mo        32.2209522207        3.0849741169       13.4803343603
 Mo         4.2024943976        5.0596603061       13.5086085556
 Mo         7.4496159635        4.4917869154       13.5130234946
 Mo        10.6958910579        3.9209494581       13.5070480568
 Mo        13.9390117430        3.3580427705       13.5004800902
 Mo        17.1798418937        2.8041546063       13.5063597987
 Mo        20.4173363754        2.2477043120       13.5215644358
 Mo        23.6507320273        1.6804232756       13.5260746288
 Mo        26.8841671403        1.1101914962       13.5086788873
 Mo        30.1230046020        0.5497396493       13.4818463762
 Mo         2.0977378626        2.5349698673       13.4818269093
 Mo         5.3440838165        1.9773965124       13.4960961773
 Mo         8.5873441350        1.4090636680       13.5068238398
 Mo        11.8258991116        0.8389476299       13.5083067115
 Mo        15.0627944199        0.2775783228       13.5095887974
 Se        45.0379334598       28.7853182686       15.1775135577
 Se        48.2774882439       28.2338793690       15.1531291029
 Se        29.9631972510       28.5174044085       15.1931239854
 Se        33.1963544117       27.9586896768       15.1954690612
 Se        36.4349808784       27.4033119025       15.2057097659
 Se        39.6824763087       26.8369584656       15.2094851442
 Se        42.9347678759       26.2655376037       15.1957143097
 Se        46.1825760110       25.7039250606       15.1736794190
 Se        18.1468580569       27.6923458392       15.1531452205
 Se        21.3853234207       27.1430720219       15.1737702624
 Se        24.6210828719       26.5742011408       15.1911332605
 Se        27.8521362092       25.9957504903       15.1914108819
 Se        31.0826384630       25.4274775527       15.1828165645
 Se        34.3187465885       24.8739714574       15.1819100484
 Se        37.5647368185       24.3204596200       15.1910560104
 Se        40.8192779760       23.7558450234       15.1963427186
 Se        44.0720960417       23.1861198793       15.1910239745
 Se        16.0536517495       25.1566174981       15.1644614930
 Se        19.2890142472       24.6110898709       15.1775159979
 Se        22.5228204635       24.0495816739       15.1957991993
 Se        25.7540835196       23.4723148890       15.1964305449
 Se        28.9849093285       22.8985483487       15.1784070939
 Se        32.2192309031       22.3421021250       15.1608540882
 Se        35.4595030513       21.7965578982       15.1622049834
 Se        38.7070105150       21.2447646289       15.1784065135
 Se        41.9556771409       20.6771849359       15.1913919312
 Se        13.9466198248       22.6245389931       15.1837879034
 Se        17.1820726526       22.0740884173       15.1888676738
 Se        20.4170933886       21.5189291405       15.2046864472
 Se        23.6540613241       20.9473006415       15.2095456388
 Se        26.8923466738       20.3714837279       15.1911221705
 Se        30.1307680709       19.8102422597       15.1622159610
 Se        33.3685193519       19.2651448548       15.1485994607
 Se        36.6079276621       18.7220062448       15.1608978822
 Se        39.8482769165       18.1636177270       15.1829076743
 Se        43.0839739212       17.5881060137       15.1932225602
 Se        11.8287299150       20.1036462021       15.1934313696
 Se        15.0631612313       19.5401433833       15.1936292505
 Se        18.2980854696       18.9860682003       15.2026428372
 Se        21.5393744020       18.4243005432       15.2124860710
 Se        24.7873499554       17.8516972587       15.2057505172
 Se        28.0359779243       17.2836122022       15.1819381216
 Se        31.2784045322       16.7313053094       15.1608341519
 Se        34.5152640457       16.1886257068       15.1622126345
 Se        37.7507826474       15.6378178832       15.1820174669
 Se        40.9834523272       15.0674420207       15.1956285617
 Se        12.9469376767       17.0132608244       15.1899376819
 Se        16.1795041307       16.4532059037       15.1869982329
 Se        19.4197659645       15.9001952827       15.1939536474
 Se        22.6703728794       15.3387563747       15.2006999931
 Se        25.9257480534       14.7692579441       15.1955036678
 Se        29.1746963028       14.2042772923       15.1827854383
 Se        32.4136385063       13.6520626887       15.1783213942
 Se        35.6483783765       13.1034587033       15.1910751222
 Se        38.8830796428       12.5403846833       15.2058070956
 Se        10.8449478972       14.4888363034       15.1892089997
 Se        14.0760222005       13.9219608679       15.1725565091
 Se        17.3127922596       13.3711904833       15.1658844004
 Se        20.5580354837       12.8225581233       15.1759610427
 Se        23.8098931458       12.2615910197       15.1891391119
 Se        27.0585258084       11.6898492122       15.1931493870
 Se        30.2978484463       11.1224214241       15.1913187586
 Se        33.5321751951       10.5672206493       15.1962961005
 Se        36.7688565083       10.0111307456       15.2094791865
 Se         8.7497090925       11.9634433300       15.2008033822
 Se        11.9850471538       11.3921612582       15.1760157679
 Se        15.2216525818       10.8388786268       15.1531280560
 Se        18.4605391831       10.2962466003       15.1531328909
 Se        21.7034220964        9.7468577657       15.1725943627
 Se        24.9451306590        9.1790082449       15.1899957653
 Se        28.1805742340        8.6021749835       15.1934694657
 Se        31.4124402723        8.0350409575       15.1910202474
 Se        34.6479032974        7.4802718693       15.1956708453
 Se         6.6429835355        9.4412432272       15.2125230446
 Se         9.8887743316        8.8676023062       15.1940127542
 Se        13.1324857073        8.3073954272       15.1659004709
 Se        16.3710924772        7.7626102013       15.1531185939
 Se        19.6079815001        7.2191318415       15.1659432007
 Se        22.8437551540        6.6595375126       15.1871181745
 Se        26.0753095005        6.0828139474       15.1937697374
 Se        29.3047447152        5.5075229181       15.1838732289
 Se        32.5376800051        4.9483842790       15.1736956149
 Se        35.7785631850        4.3989948777       15.1774806437
 Se         4.5241431772        6.9220360602       15.2046507652
 Se         7.7771734884        6.3533069454       15.2026700615
 Se        11.0300057072        5.7849337387       15.1870107792
 Se        14.2738579476        5.2288690282       15.1725073347
 Se        17.5101793661        4.6829907654       15.1759579304
 Se        20.7446251782        4.1298927584       15.1940323330
 Se        23.9779000851        3.5583119073       15.2027668982
 Se        27.2102247653        2.9807534142       15.1889740170
 Se        30.4440162302        2.4167461661       15.1645048972
 Se        33.6812083136        1.8692015788       15.1531342404
 Se         5.6609246775        3.8428550582       15.1889024722
 Se         8.9148473270        3.2747192878       15.1936642653
 Se        12.1613053939        2.7053822201       15.1898956227
 Se        15.3984770858        2.1472444655       15.1890788709
 Se        18.6330870282        1.5954887548       15.2006977349
 Se        21.8707174320        1.0321367130       15.2125202111
 Se        25.1118726460        0.4567228485       15.2047162511
 Se         3.5556089321        1.3243405750       15.1645102814
 Se         6.8019652333        0.7656031798       15.1838798457
 Se        10.0440943914        0.1918190044       15.1934735462
 Se        45.0169922701       28.7909191322       11.8116323145
 Se        48.2662900656       28.2343918560       11.7913057334
 Se        29.9661254485       28.5216749880       11.8229008292
 Se        33.2080636665       27.9661830211       11.8262884439
 Se        36.4470604181       27.4110309703       11.8353101795
 Se        39.6806030554       26.8453361717       11.8385010225
 Se        42.9168301808       26.2724405049       11.8267762266
 Se        46.1629080453       25.7037006658       11.8080335834
 Se        18.1520500675       27.6824139688       11.7913269061
 Se        21.3953869571       27.1261711994       11.8081054302
 Se        24.6252753956       26.5620387493       11.8218544584
 Se        27.8529859157       25.9972688287       11.8216555004
 Se        31.0895414846       25.4411209442       11.8150446675
 Se        34.3337951640       24.8909221929       11.8151968400
 Se        37.5768153496       24.3337774514       11.8229938422
 Se        40.8170501552       23.7636982288       11.8272144112
 Se        44.0594258966       23.1885413796       11.8217739067
 Se        16.0477093419       25.1448899266       11.8005724714
 Se        19.2946939035       24.5902129545       11.8116471853
 Se        22.5258408302       24.0306333698       11.8268474005
 Se        25.7483358975       23.4664684377       11.8272834959
 Se        28.9780663329       22.9070743521       11.8119359372
 Se        32.2221974187       22.3565449275       11.7975724591
 Se        35.4725624974       21.8064361671       11.7988723943
 Se        38.7177881277       21.2463441197       11.8119235590
 Se        41.9564987850       20.6755986186       11.8216499784
 Se        13.9385678836       22.6205450302       11.8157322432
 Se        17.1858429324       22.0629421360       11.8210085172
 Se        20.4225538907       21.5058578119       11.8344500514
 Se        23.6477725098       20.9415157471       11.8385549523
 Se        26.8747210382       20.3753001170       11.8230472903
 Se        30.1156267762       19.8166151724       11.7988841583
 Se        33.3685240731       19.2651474795       11.7875532819
 Se        36.6189719846       18.7121621422       11.7976147873
 Se        39.8566227995       18.1507367680       11.8151184975
 Se        43.0861355847       17.5833526746       11.8229673624
 Se        11.8265833818       20.1043465817       11.8228871264
 Se        15.0688212618       19.5430430036       11.8241318537
 Se        18.3100893578       18.9885744904       11.8327161311
 Se        21.5437663624       18.4281999015       11.8410414476
 Se        24.7746334192       17.8583091789       11.8353290164
 Se        28.0137226782       17.2882024132       11.8152138251
 Se        31.2643836679       16.7267040879       11.7975647821
 Se        34.5173585820       16.1723780812       11.7988917816
 Se        37.7579929177       15.6162935124       11.8152824459
 Se        40.9840864962       15.0535467095       11.8264079175
 Se        12.9509945790       17.0207872188       11.8203489556
 Se        16.1922047697       16.4677737660       11.8190916101
 Se        19.4346368437       15.9146444527       11.8253950759
 Se        22.6734960293       15.3499594562       11.8310849134
 Se        25.9133681240       14.7756456856       11.8262997595
 Se        29.1593642451       14.2034849880       11.8150230826
 Se        32.4096704624       13.6419473950       11.8118868850
 Se        35.6539512504       13.0863482373       11.8230318929
 Se        38.8837781629       12.5261067789       11.8353863472
 Se        10.8407062288       14.4905072283       11.8206908139
 Se        14.0771878163       13.9359634575       11.8069135000
 Se        17.3244721996       13.3871424809       11.8018838454
 Se        20.5716140083       12.8319962529       11.8102860214
 Se        23.8134211384       12.2643361708       11.8206326991
 Se        27.0532721019       11.6902708047       11.8229114700
 Se        30.2960280601       11.1224401809       11.8215922663
 Se        33.5401233353       10.5652000502       11.8271865718
 Se        36.7770876538       10.0085909082       11.8385128523
 Se         8.7384266950       11.9605748039       11.8311836924
 Se        11.9699963841       11.3992126127       11.8103352453
 Se        15.2168191075       10.8467842116       11.7912943745
 Se        18.4697930769       10.2964333389       11.7913018127
 Se        21.7149512540        9.7387582425       11.8069387234
 Se        24.9495720641        9.1716305330       11.8203840069
 Se        28.1821749581        8.6035989307       11.8229118046
 Se        31.4208059277        8.0447459118       11.8217709002
 Se        34.6628272230        7.4923260071       11.8267649623
 Se         6.6374584368        9.4431152200       11.8410667245
 Se         9.8687919662        8.8732911240       11.8254403542
 Se        13.1127750212        8.3095738491       11.8019025568
 Se        16.3666610899        7.7545140746       11.7912961556
 Se        19.6160014113        7.2010092585       11.8019401289
 Se        22.8500366576        6.6412248651       11.8191820527
 Se        26.0749454287        6.0764320772       11.8242319880
 Se        29.3052274602        5.5164762862       11.8157952414
 Se        32.5472482628        4.9655098468       11.8080452000
 Se        35.7938293848        4.4142913073       11.8115986523
 Se         4.5327856715        6.9332646696       11.8344091245
 Se         7.7690018858        6.3624481778       11.8327133547
 Se        11.0109874342        5.7886843486       11.8190943175
 Se        14.2611069673        5.2229508749       11.8068833221
 Se        17.5116317915        4.6665086931       11.8103039319
 Se        20.7497539610        4.1097956187       11.8254633611
 Se        23.9740965397        3.5466961481       11.8328004452
 Se        27.1986476194        2.9831171276       11.8210803425
 Se        30.4367736410        2.4277938196       11.8006017517
 Se        33.6872166654        1.8786331672       11.7913065686
 Se         5.6687035318        3.8516422958       11.8210019688
 Se         8.9094624647        3.2781615545       11.8241520829
 Se        12.1526701113        2.7051797688       11.8203169845
 Se        15.3991190545        2.1428033502       11.8205973581
 Se        18.6412726843        1.5871938036       11.8311118567
 Se        21.8719331878        1.0264402965       11.8410717735
 Se        25.0978250535        0.4586156697       11.8344586694
 Se         3.5687705094        1.3250234276       11.8005973694
 Se         6.8094361322        0.7606138684       11.8157989834
 Se        10.0444604640        0.1896271955       11.8229100737
  W        -0.0006331313        0.0003560394       20.2353324030
  W        25.0249618487        0.0103515135       20.1320113499
  W        44.6860846759       27.8817348479       20.1712682158
  W        47.6601101037       26.8432146471       20.2087519606
  W        16.6843927516       -0.0018405952       20.1260154241
  W        36.3521780174       27.8611244788       20.1272751976
  W        39.3314245799       26.8341353733       20.1243478770
  W        42.3052472334       25.8103519352       20.1326181158
  W        45.2767145441       24.7805224984       20.1529264164
  W         8.3411143212       -0.0075481270       20.1192065135
  W        28.0071632284       27.8666975285       20.1054226435
  W        30.9927822069       26.8364752791       20.1270564959
  W        33.9769687878       25.7991097161       20.1523737808
  W        36.9557732974       24.7628189996       20.1538127787
  W        39.9285598507       23.7330753311       20.1353377124
  W        42.8994422419       22.7072320163       20.1192568271
  W        12.5057340137       21.6778887720       20.1192230652
  W        19.6587792193       27.8543193200       20.2087267516
  W        22.6368425824       26.8215738641       20.1528637691
  W        25.6210006727       25.7994803555       20.1191778018
  W        28.6084843307       24.7765620872       20.1353170402
  W        31.5933629895       23.7429602457       20.1792480294
  W        34.5727767060       22.7013868154       20.2024533580
  W        37.5471073443       21.6619209412       20.1811174448
  W        40.5198317999       20.6314854434       20.1353742023
  W        43.4966376828       19.6072121227       20.1054439559
  W        17.2672134213       25.7984948615       20.2093093900
  W        20.2464242439       24.7594704753       20.1712079839
  W        23.2307425894       23.7332756066       20.1325279058
  W        26.2180632113       22.7136759563       20.1352651605
  W        29.2024780382       21.6868808276       20.1810839643
  W        32.1815312932       20.6470972576       20.2265509611
  W        35.1571011962       19.6018706762       20.2265596859
  W        38.1322478201       18.5632794778       20.1792675995
  W        41.1116018233       17.5366846336       20.1270625685
  W        14.8826799379       23.7417201773       20.1667404539
  W        17.8622183149       22.7008670964       20.1567308703
  W        20.8460822538       21.6681044825       20.1319670781
  W        23.8310169185       20.6459625446       20.1243091218
  W        26.8126861751       19.6242741704       20.1538108477
  W        29.7894228746       18.5912865374       20.2024740893
  W        32.7641185144       17.5475352253       20.2265661221
  W        35.7405309829       16.5038061277       20.2024409320
  W        38.7211543830       15.4709572605       20.1523535681
  W        41.7072698385       14.4495205005       20.1259962716
  W        15.4862059129       20.6418161169       20.1271679726
  W        18.4702190668       19.6047949096       20.1273789725
  W        21.4530721934       18.5752292607       20.1215094619
  W        24.4312558974       17.5523876268       20.1273149682
  W        27.4046594905       16.5264202111       20.1524341089
  W        30.3771288581       15.4902629704       20.1792975883
  W        33.3531700844       14.4476984073       20.1810946473
  W        36.3342786148       13.4093581371       20.1537603556
  W        39.3193226487       12.3829141995       20.1272499539
  W        13.1111858368       18.5797742502       20.1102693326
  W        16.0963420898       17.5446193553       20.1327484462
  W        19.0788970970       16.5078889658       20.1438702429
  W        22.0554561152       15.4768915699       20.1363875752
  W        25.0269986767       14.4511008119       20.1260833488
  W        27.9983630886       13.4233784452       20.1271219550
  W        30.9744080702       12.3884850408       20.1353621820
  W        33.9561151253       11.3497192731       20.1352798641
  W        36.9402999230       10.3163178509       20.1243065122
  W        10.7287845011       16.5151601724       20.1150266505
  W        13.7155530994       15.4868124345       20.1458547576
  W        16.6986280147       14.4486358820       20.1812535693
  W        19.6758342080       13.4085030878       20.1826860225
  W        22.6483293842       12.3749456151       20.1500943518
  W        25.6210018912       11.3487619377       20.1150799362
  W        28.5989749666       10.3226751268       20.1054436791
  W        31.5822826029        9.2898146555       20.1191989268
  W        34.5667923031        8.2528476755       20.1325590621
  W         4.1793867292        7.2202575274       20.1320161478
  W        11.3264083733       13.4276379777       20.1500444784
  W        14.3094046946       12.3941153822       20.2009231676
  W        17.2872195175       11.3506913150       20.2268010944
  W        20.2617806783       10.3083644990       20.2009312457
  W        23.2370350282        9.2763148695       20.1458723705
  W        26.2178125580        8.2532564629       20.1102661397
  W        29.2035967244        7.2285118209       20.1191778683
  W        32.1891912290        6.1944207462       20.1528647023
  W        35.1702221198        5.1552643913       20.1712472748
  W         8.9364979336       11.3631744838       20.1363489473
  W        11.9175785953       10.3365979976       20.1826901906
  W        14.8940018572        9.2968786571       20.2268103556
  W        17.8692223065        8.2511875825       20.2267947978
  W        20.8464144531        7.2119479336       20.1812369590
  W        23.8287577644        6.1855835653       20.1327299911
  W        26.8160801913        5.1653513189       20.1271427856
  W        29.8024582338        4.1380748177       20.1667074951
  W        32.7838076801        3.0989528633       20.2087289597
  W         6.5544018825        9.2923139512       20.1215191271
  W         9.5319022854        8.2698975052       20.1439091265
  W        12.5054055985        7.2381815494       20.1812973624
  W        15.4792923399        6.1963060807       20.2009377465
  W        18.4570455807        5.1536560757       20.1826538706
  W        21.4396665385        4.1209447840       20.1438312088
  W        24.4260233011        3.0996030882       20.1273671990
  W        27.4113084084        2.0781084840       20.1567443462
  W        30.3914246199        1.0446143753       20.2093204125
  W         7.1542262192        6.1943445876       20.1274455352
  W        10.1253736962        5.1685929741       20.1328197493
  W        13.0978593956        4.1356878656       20.1459051665
  W        16.0756863333        3.0961889205       20.1500583856
  W        19.0585040917        2.0586629879       20.1363322996
  W        22.0429527796        1.0311411109       20.1214926042
  W         4.7768930100        4.1197789777       20.1567856542
  W         7.7481218346        3.0916296007       20.1272205308
  W        10.7214541449        2.0658241289       20.1103095098
  W        13.7006536950        1.0349189006       20.1150524463
  W         2.3918017778        2.0556824303       20.2093278924
  W         5.3652919157        1.0190013596       20.1667450921
  S        48.2506477163       28.5583163534       21.8002676012
  S        39.9192814653       28.5565717966       21.7013898635
  S        42.8829172061       27.5288044003       21.7222605745
  S        45.8536971256       26.4888581694       21.7571110886
  S        31.5776921113       28.5603628838       21.6982999973
  S        34.5687272275       27.5310721914       21.7115083260
  S        37.5525617478       26.4971396802       21.7112942083
  S        40.5207252399       25.4607515799       21.7067146965
  S        43.4824130282       24.4220842153       21.7113165731
  S        46.4541660069       23.3819997945       21.7235844238
  S        23.2602398015       28.5389290806       21.7235158899
  S        26.2267887028       27.5197122382       21.6896241393
  S        29.1985495033       26.5062745510       21.6982018779
  S        32.1843545902       25.4823239032       21.7305687295
  S        35.1764740158       24.4433041469       21.7483031313
  S        38.1584228191       23.3974388708       21.7346627801
  S        41.1251310862       22.3554887945       21.7061132124
  S        44.0881950029       21.3225502905       21.6896910740
  S        17.8791666551       27.5065733489       21.8002359914
  S        20.8698470845       26.4654769962       21.7570155054
  S        23.8453728066       25.4452854583       21.7112022270
  S        26.8137427799       24.4371775710       21.7060351939
  S        29.7897505640       23.4207439652       21.7438711699
  S        32.7802612831       22.3838548622       21.7841066799
  S        35.7746288773       21.3333331217       21.7847365090
  S        38.7568602295       20.2864029117       21.7438680977
  S        41.7246414435       19.2556689303       21.6982048359
  S        15.4729226605       25.4410435836       21.7757178036
  S        18.4681691438       24.3987145905       21.7585860662
  S        21.4546384785       23.3727515381       21.7221469009
  S        24.4267211249       22.3610755003       21.7066251287
  S        27.3947581190       21.3469527948       21.7346305338
  S        30.3742249298       20.3145697855       21.7847473808
  S        33.3685121251       19.2649838784       21.8096164549
  S        36.3636438563       18.2149657234       21.7840765753
  S        39.3449529729       17.1818343161       21.7305292336
  S        42.3139631183       16.1682333884       21.6982516822
  S        16.0737566980       22.3441864884       21.7277948103
  S        19.0658369380       21.3137543054       21.7151902810