 DBCSR| CPU Multiplication driver                                           XSMM (U)
 DBCSR| Multrec recursion limit                                              512 (U)
 DBCSR| Multiplication stack size                                           1000 (D)
 DBCSR| Maximum elements for images                                    UNLIMITED (U)
 DBCSR| Multiplicative factor virtual images                                   1 (U)
 DBCSR| Use multiplication densification                                       T (D)
 DBCSR| Multiplication size stacks                                             3 (U)
 DBCSR| Use memory pool for CPU allocation                                     F (U)
 DBCSR| Number of 3D layers                                               SINGLE (U)
 DBCSR| Use MPI memory allocation                                              F (U)
 DBCSR| Use RMA algorithm                                                      F (U)
 DBCSR| Use Communication thread                                               T (U)
 DBCSR| Communication thread load                                             75 (D)
 DBCSR| MPI: My process id                                                     0
 DBCSR| MPI: Number of processes                                            1280
 DBCSR| OMP: Current number of threads                                         4
 DBCSR| OMP: Max number of threads                                             4
 DBCSR| Split modifier for TAS multiplication algorithm                  1.0E+00 (U)


  **** **** ******  **  PROGRAM STARTED AT               2023-05-31 00:00:51.282
 ***** ** ***  *** **   PROGRAM STARTED ON                              n2cn0167
 **    ****   ******    PROGRAM STARTED BY                              eprop2d1
 ***** **    ** ** **   PROGRAM PROCESS ID                               3628587
  **** **  *******  **  PROGRAM STARTED IN /scratch/hpc-prf-eprop2d/eprop2d1_Jan
                                           /02_MoS2_MoSe2_WS2_WSe2/1_MoS2/10x10_
                                           PBE/04_reg_RI_1e-2_TZVP_standard_RI/1
                                           _10_minimax

 CP2K| version string:                 CP2K version 2023.1 (Development Version)
 CP2K| source code revision number:                                  git:a5f008f
 CP2K| cp2kflags: omp libint fftw3 libxc elpa parallel scalapack cosma xsmm plum
 CP2K|            ed2 spglib sirius libvori libbqb libvdwxc
 CP2K| is freely available from                            https://www.cp2k.org/
 CP2K| Program compiled at                         Tue Apr 11 10:47:55 CEST 2023
 CP2K| Program compiled on                                              n2login5
 CP2K| Program compiled for                                                local
 CP2K| Data directory path    /opt/software/pc2/EB-SW/software/CP2K/2023.1-foss-
 CP2K| Input file name                                                    GW.inp

 GLOBAL| Force Environment number                                              1
 GLOBAL| Basis set file name                                        BASIS_MOLOPT
 GLOBAL| Potential file name                                      GTH_POTENTIALS
 GLOBAL| MM Potential file name                                     MM_POTENTIAL
 GLOBAL| Coordinate file name                                      __STD_INPUT__
 GLOBAL| Method name                                                        CP2K
 GLOBAL| Project name                                                       MoS2
 GLOBAL| Run type                                                         ENERGY
 GLOBAL| FFT library                                                       FFTW3
 GLOBAL| Diagonalization library                                            ELPA
 GLOBAL| DGEMM library                                                      BLAS
 GLOBAL| Minimum number of eigenvectors for ELPA usage                        16
 GLOBAL| Orthonormality check for eigenvectors                          DISABLED
 GLOBAL| Matrix multiplication library                                     COSMA
 GLOBAL| All-to-all communication in single precision                          F
 GLOBAL| FFTs using library dependent lengths                                  F
 GLOBAL| Grid backend                                                       AUTO
 GLOBAL| Global print level                                               MEDIUM
 GLOBAL| MPI I/O enabled                                                       T
 GLOBAL| Total number of message passing processes                          1280
 GLOBAL| Number of threads for this process                                    4
 GLOBAL| This output is from process                                           0
 GLOBAL| Stack size for threads created by OpenMP (OMP_STACKSIZE)        default
 GLOBAL| CPU model name                          AMD EPYC 7763 64-Core Processor
 GLOBAL| CPUID                                                              1002
 GLOBAL| Compiled for CPUID                                                    0

 *** HINT in environment.F:882 :: The compiler target flags (generic) used ***
 *** to build this binary cannot exploit all extensions of this CPU model  ***
 *** (x86_avx2). Consider compiler target flags as part of FCFLAGS and     ***
 *** CFLAGS (ARCH file).                                                   ***


 MEMORY| system memory details [Kb]
 MEMORY|                        rank 0           min           max       average
 MEMORY| MemTotal            263914152     263914148     263914156     263914149
 MEMORY| MemFree             237665948     232891656     251339268     244760699
 MEMORY| Buffers                313228         54884        347624        256507
 MEMORY| Cached               10023204       4067276      16678200       6417719
 MEMORY| Slab                  8661944       1420256      13305260       5487226
 MEMORY| SReclaimable           408664        164828        502596        285010
 MEMORY| MemLikelyFree       248411044     243078188     256367560     251719937


 *** Fundamental physical constants (SI units) ***

 *** Literature: B. J. Mohr and B. N. Taylor,
 ***             CODATA recommended values of the fundamental physical
 ***             constants: 2006, Web Version 5.1
 ***             http://physics.nist.gov/constants

 Speed of light in vacuum [m/s]                             2.99792458000000E+08
 Magnetic constant or permeability of vacuum [N/A**2]       1.25663706143592E-06
 Electric constant or permittivity of vacuum [F/m]          8.85418781762039E-12
 Planck constant (h) [J*s]                                  6.62606896000000E-34
 Planck constant (h-bar) [J*s]                              1.05457162825177E-34
 Elementary charge [C]                                      1.60217648700000E-19
 Electron mass [kg]                                         9.10938215000000E-31
 Electron g factor [ ]                                     -2.00231930436220E+00
 Proton mass [kg]                                           1.67262163700000E-27
 Fine-structure constant                                    7.29735253760000E-03
 Rydberg constant [1/m]                                     1.09737315685270E+07
 Avogadro constant [1/mol]                                  6.02214179000000E+23
 Boltzmann constant [J/K]                                   1.38065040000000E-23
 Atomic mass unit [kg]                                      1.66053878200000E-27
 Bohr radius [m]                                            5.29177208590000E-11

 *** Conversion factors ***

 [u] -> [a.u.]                                              1.82288848426455E+03
 [Angstrom] -> [Bohr] = [a.u.]                              1.88972613288564E+00
 [a.u.] = [Bohr] -> [Angstrom]                              5.29177208590000E-01
 [a.u.] -> [s]                                              2.41888432650478E-17
 [a.u.] -> [fs]                                             2.41888432650478E-02
 [a.u.] -> [J]                                              4.35974393937059E-18
 [a.u.] -> [N]                                              8.23872205491840E-08
 [a.u.] -> [K]                                              3.15774647902944E+05
 [a.u.] -> [kJ/mol]                                         2.62549961709828E+03
 [a.u.] -> [kcal/mol]                                       6.27509468713739E+02
 [a.u.] -> [Pa]                                             2.94210107994716E+13
 [a.u.] -> [bar]                                            2.94210107994716E+08
 [a.u.] -> [atm]                                            2.90362800883016E+08
 [a.u.] -> [eV]                                             2.72113838565563E+01
 [a.u.] -> [Hz]                                             6.57968392072181E+15
 [a.u.] -> [1/cm] (wave numbers)                            2.19474631370540E+05
 [a.u./Bohr**2] -> [1/cm]                                   5.14048714338585E+03
 

 CELL_TOP| Volume [angstrom^3]:                                     12889.705604
 CELL_TOP| Vector a [angstrom    31.500     0.000     0.000   |a| =    31.500000
 CELL_TOP| Vector b [angstrom   -15.750    27.280     0.000   |b| =    31.500000
 CELL_TOP| Vector c [angstrom     0.000     0.000    15.000   |c| =    15.000000
 CELL_TOP| Angle (b,c), alpha [degree]:                                90.000000
 CELL_TOP| Angle (a,c), beta  [degree]:                                90.000000
 CELL_TOP| Angle (a,b), gamma [degree]:                               120.000000
 CELL_TOP| Numerically orthorhombic:                                          NO
 CELL_TOP| Periodicity                                                        XY

 CELL_UC| Volume [angstrom^3]:                                        128.897056
 CELL_UC| Vector a [angstrom]     3.150     0.000     0.000   |a| =     3.150000
 CELL_UC| Vector b [angstrom]    -1.575     2.728     0.000   |b| =     3.150000
 CELL_UC| Vector c [angstrom]     0.000     0.000    15.000   |c| =    15.000000
 CELL_UC| Angle (b,c), alpha [degree]:                                 90.000000
 CELL_UC| Angle (a,c), beta  [degree]:                                 90.000000
 CELL_UC| Angle (a,b), gamma [degree]:                                120.000000
 CELL_UC| Numerically orthorhombic:                                           NO
 CELL_UC| Periodicity                                                         XY

 GENERATE|  Preliminary Number of Bonds generated:                             0
 GENERATE|  Achieved consistency in connectivity generation.

 CELL| Volume [angstrom^3]:                                         12889.705604
 CELL| Vector a [angstrom]:      31.500     0.000     0.000   |a| =    31.500000
 CELL| Vector b [angstrom]:     -15.750    27.280     0.000   |b| =    31.500000
 CELL| Vector c [angstrom]:       0.000     0.000    15.000   |c| =    15.000000
 CELL| Angle (b,c), alpha [degree]:                                    90.000000
 CELL| Angle (a,c), beta  [degree]:                                    90.000000
 CELL| Angle (a,b), gamma [degree]:                                   120.000000
 CELL| Numerically orthorhombic:                                              NO
 CELL| Periodicity                                                            XY

 CELL_REF| Volume [angstrom^3]:                                     12889.705604
 CELL_REF| Vector a [angstrom    31.500     0.000     0.000   |a| =    31.500000
 CELL_REF| Vector b [angstrom   -15.750    27.280     0.000   |b| =    31.500000
 CELL_REF| Vector c [angstrom     0.000     0.000    15.000   |c| =    15.000000
 CELL_REF| Angle (b,c), alpha [degree]:                                90.000000
 CELL_REF| Angle (a,c), beta  [degree]:                                90.000000
 CELL_REF| Angle (a,b), gamma [degree]:                               120.000000
 CELL_REF| Numerically orthorhombic:                                          NO
 CELL_REF| Periodicity                                                        XY

 *******************************************************************************
 *******************************************************************************
 **                                                                           **
 **     #####                         ##              ##                      **
 **    ##   ##            ##          ##              ##                      **
 **   ##     ##                       ##            ######                    **
 **   ##     ##  ##   ##  ##   #####  ##  ##   ####   ##    #####    #####    **
 **   ##     ##  ##   ##  ##  ##      ## ##   ##      ##   ##   ##  ##   ##   **
 **   ##  ## ##  ##   ##  ##  ##      ####     ###    ##   ######   ######    **
 **    ##  ###   ##   ##  ##  ##      ## ##      ##   ##   ##       ##        **
 **     #######   #####   ##   #####  ##  ##  ####    ##    #####   ##        **
 **           ##                                                    ##        **
 **                                                                           **
 **                                                ... make the atoms dance   **
 **                                                                           **
 **            Copyright (C) by CP2K developers group (2000-2023)             **
 **                      J. Chem. Phys. 152, 194103 (2020)                    **
 **                                                                           **
 *******************************************************************************

 DFT| Spin restricted Kohn-Sham (RKS) calculation                            RKS
 DFT| Multiplicity                                                             1
 DFT| Number of spin states                                                    1
 DFT| Charge                                                                   0
 DFT| Self-interaction correction (SIC)                                       NO
 DFT| Cutoffs: density                                              1.000000E-10
 DFT|          gradient                                             1.000000E-10
 DFT|          tau                                                  1.000000E-10
 DFT|          cutoff_smoothing_range                               0.000000E+00
 DFT| XC density smoothing                                                  NONE
 DFT| XC derivatives                                                          PW

 FUNCTIONAL| PADE:
 FUNCTIONAL| S. Goedecker, M. Teter and J. Hutter, Phys. Rev. B 54, 1703 (1996) 


 QS| Method:                                                                 GPW
 QS| Density plane wave grid type                        NON-SPHERICAL FULLSPACE
 QS| Number of grid levels:                                                    4
 QS| Density cutoff [a.u.]:                                                250.0
 QS| Multi grid cutoff [a.u.]: 1) grid level                               250.0
 QS|                           2) grid level                                83.3
 QS|                           3) grid level                                27.8
 QS|                           4) grid level                                 9.3
 QS| Grid level progression factor:                                          3.0
 QS| Relative density cutoff [a.u.]:                                        50.0
 QS| Interaction thresholds: eps_pgf_orb:                                1.0E-40
 QS|                         eps_filter_matrix:                          0.0E+00
 QS|                         eps_core_charge:                            1.0E-42
 QS|                         eps_rho_gspace:                             1.0E-40
 QS|                         eps_rho_rspace:                             1.0E-40
 QS|                         eps_gvg_rspace:                             1.0E-20
 QS|                         eps_ppl:                                    1.0E-02
 QS|                         eps_ppnl:                                   1.0E-22


 ATOMIC KIND INFORMATION

  1. Atomic kind: Mo                                    Number of atoms:     100

     Orbital Basis Set                                        TZVP-MOLOPT-SR-GTH

       Number of orbital shell sets:                                           1
       Number of orbital shells:                                              11
       Number of primitive Cartesian functions:                                7
       Number of Cartesian basis functions:                                   41
       Number of spherical basis functions:                                   35
       Norm type:                                                              2

       Normalised Cartesian orbitals:

                        Set   Shell   Orbital            Exponent    Coefficient

                          1       1    2s                2.540273      -1.347286
                                                         1.999996       0.728128
                                                         0.894040       0.538325
                                                         0.439257       0.138859
                                                         0.189498       0.017388
                                                         0.083802      -0.011271
                                                         0.052949      -0.000447

                          1       2    3s                2.540273       0.117404
                                                         1.999996      -0.257366
                                                         0.894040       0.160976
                                                         0.439257       0.021863
                                                         0.189498      -0.097132
                                                         0.083802      -0.024730
                                                         0.052949      -0.037323

                          1       3    4s                2.540273       0.911432
                                                         1.999996      -3.197513
                                                         0.894040       2.305463
                                                         0.439257      -1.066869
                                                         0.189498       0.281610
                                                         0.083802      -0.247438
                                                         0.052949       0.194863

                          1       4    5s                2.540273       0.190511
                                                         1.999996       0.663305
                                                         0.894040      -0.277779
                                                         0.439257       0.087883
                                                         0.189498      -0.134808
                                                         0.083802      -0.125374
                                                         0.052949       0.060527

                          1       5    3px               2.540273       3.649549
                                                         1.999996      -3.522362
                                                         0.894040      -0.796260
                                                         0.439257      -0.102391
                                                         0.189498       0.030257
                                                         0.083802       0.012043
                                                         0.052949      -0.005551
                          1       5    3py               2.540273       3.649549
                                                         1.999996      -3.522362
                                                         0.894040      -0.796260
                                                         0.439257      -0.102391
                                                         0.189498       0.030257
                                                         0.083802       0.012043
                                                         0.052949      -0.005551
                          1       5    3pz               2.540273       3.649549
                                                         1.999996      -3.522362
                                                         0.894040      -0.796260
                                                         0.439257      -0.102391
                                                         0.189498       0.030257
                                                         0.083802       0.012043
                                                         0.052949      -0.005551

                          1       6    4px               2.540273       0.130676
                                                         1.999996       0.100306
                                                         0.894040      -0.137933
                                                         0.439257      -0.038630
                                                         0.189498      -0.100430
                                                         0.083802      -0.009149
                                                         0.052949      -0.010276
                          1       6    4py               2.540273       0.130676
                                                         1.999996       0.100306
                                                         0.894040      -0.137933
                                                         0.439257      -0.038630
                                                         0.189498      -0.100430
                                                         0.083802      -0.009149
                                                         0.052949      -0.010276
                          1       6    4pz               2.540273       0.130676
                                                         1.999996       0.100306
                                                         0.894040      -0.137933
                                                         0.439257      -0.038630
                                                         0.189498      -0.100430
                                                         0.083802      -0.009149
                                                         0.052949      -0.010276

                          1       7    5px               2.540273       0.518415
                                                         1.999996       0.049290
                                                         0.894040      -0.003513
                                                         0.439257      -0.436181
                                                         0.189498      -0.029910
                                                         0.083802      -0.032193
                                                         0.052949       0.029939
                          1       7    5py               2.540273       0.518415
                                                         1.999996       0.049290
                                                         0.894040      -0.003513
                                                         0.439257      -0.436181
                                                         0.189498      -0.029910
                                                         0.083802      -0.032193
                                                         0.052949       0.029939
                          1       7    5pz               2.540273       0.518415
                                                         1.999996       0.049290
                                                         0.894040      -0.003513
                                                         0.439257      -0.436181
                                                         0.189498      -0.029910
                                                         0.083802      -0.032193
                                                         0.052949       0.029939

                          1       8    4dx2              2.540273      -1.446942
                                                         1.999996       1.845373
                                                         0.894040       0.335548
                                                         0.439257       0.133939
                                                         0.189498       0.030529
                                                         0.083802       0.002068
                                                         0.052949       0.000807
                          1       8    4dxy              2.540273      -2.506177
                                                         1.999996       3.196279
                                                         0.894040       0.581186
                                                         0.439257       0.231990
                                                         0.189498       0.052877
                                                         0.083802       0.003582
                                                         0.052949       0.001398
                          1       8    4dxz              2.540273      -2.506177
                                                         1.999996       3.196279
                                                         0.894040       0.581186
                                                         0.439257       0.231990
                                                         0.189498       0.052877
                                                         0.083802       0.003582
                                                         0.052949       0.001398
                          1       8    4dy2              2.540273      -1.446942
                                                         1.999996       1.845373
                                                         0.894040       0.335548
                                                         0.439257       0.133939
                                                         0.189498       0.030529
                                                         0.083802       0.002068
                                                         0.052949       0.000807
                          1       8    4dyz              2.540273      -2.506177
                                                         1.999996       3.196279
                                                         0.894040       0.581186
                                                         0.439257       0.231990
                                                         0.189498       0.052877
                                                         0.083802       0.003582
                                                         0.052949       0.001398
                          1       8    4dz2              2.540273      -1.446942
                                                         1.999996       1.845373
                                                         0.894040       0.335548
                                                         0.439257       0.133939
                                                         0.189498       0.030529
                                                         0.083802       0.002068
                                                         0.052949       0.000807

                          1       9    5dx2              2.540273       1.183516
                                                         1.999996      -1.496893
                                                         0.894040      -0.288851
                                                         0.439257      -0.115873
                                                         0.189498       0.057412
                                                         0.083802       0.002105
                                                         0.052949       0.004748
                          1       9    5dxy              2.540273       2.049910
                                                         1.999996      -2.592694
                                                         0.894040      -0.500305
                                                         0.439257      -0.200698
                                                         0.189498       0.099440
                                                         0.083802       0.003646
                                                         0.052949       0.008223
                          1       9    5dxz              2.540273       2.049910
                                                         1.999996      -2.592694
                                                         0.894040      -0.500305
                                                         0.439257      -0.200698
                                                         0.189498       0.099440
                                                         0.083802       0.003646
                                                         0.052949       0.008223
                          1       9    5dy2              2.540273       1.183516
                                                         1.999996      -1.496893
                                                         0.894040      -0.288851
                                                         0.439257      -0.115873
                                                         0.189498       0.057412
                                                         0.083802       0.002105
                                                         0.052949       0.004748
                          1       9    5dyz              2.540273       2.049910
                                                         1.999996      -2.592694
                                                         0.894040      -0.500305
                                                         0.439257      -0.200698
                                                         0.189498       0.099440
                                                         0.083802       0.003646
                                                         0.052949       0.008223
                          1       9    5dz2              2.540273       1.183516
                                                         1.999996      -1.496893
                                                         0.894040      -0.288851
                                                         0.439257      -0.115873
                                                         0.189498       0.057412
                                                         0.083802       0.002105
                                                         0.052949       0.004748

                          1      10    6dx2              2.540273       0.180795
                                                         1.999996       0.220695
                                                         0.894040       1.401603
                                                         0.439257      -0.205481
                                                         0.189498      -0.008824
                                                         0.083802      -0.020282
                                                         0.052949       0.004446
                          1      10    6dxy              2.540273       0.313146
                                                         1.999996       0.382255
                                                         0.894040       2.427647
                                                         0.439257      -0.355904
                                                         0.189498      -0.015284
                                                         0.083802      -0.035129
                                                         0.052949       0.007700
                          1      10    6dxz              2.540273       0.313146
                                                         1.999996       0.382255
                                                         0.894040       2.427647
                                                         0.439257      -0.355904
                                                         0.189498      -0.015284
                                                         0.083802      -0.035129
                                                         0.052949       0.007700
                          1      10    6dy2              2.540273       0.180795
                                                         1.999996       0.220695
                                                         0.894040       1.401603
                                                         0.439257      -0.205481
                                                         0.189498      -0.008824
                                                         0.083802      -0.020282
                                                         0.052949       0.004446
                          1      10    6dyz              2.540273       0.313146
                                                         1.999996       0.382255
                                                         0.894040       2.427647
                                                         0.439257      -0.355904
                                                         0.189498      -0.015284
                                                         0.083802      -0.035129
                                                         0.052949       0.007700
                          1      10    6dz2              2.540273       0.180795
                                                         1.999996       0.220695
                                                         0.894040       1.401603
                                                         0.439257      -0.205481
                                                         0.189498      -0.008824
                                                         0.083802      -0.020282
                                                         0.052949       0.004446

                          1      11    5fx3              2.540273       0.800295
                                                         1.999996      -0.726100
                                                         0.894040      -0.319551
                                                         0.439257      -0.112926
                                                         0.189498      -0.010366
                                                         0.083802      -0.000580
                                                         0.052949      -0.000060
                          1      11    5fx2y             2.540273       1.789514
                                                         1.999996      -1.623609
                                                         0.894040      -0.714538
                                                         0.439257      -0.252510
                                                         0.189498      -0.023179
                                                         0.083802      -0.001296
                                                         0.052949      -0.000134
                          1      11    5fx2z             2.540273       1.789514
                                                         1.999996      -1.623609
                                                         0.894040      -0.714538
                                                         0.439257      -0.252510
                                                         0.189498      -0.023179
                                                         0.083802      -0.001296
                                                         0.052949      -0.000134
                          1      11    5fxy2             2.540273       1.789514
                                                         1.999996      -1.623609
                                                         0.894040      -0.714538
                                                         0.439257      -0.252510
                                                         0.189498      -0.023179
                                                         0.083802      -0.001296
                                                         0.052949      -0.000134
                          1      11    5fxyz             2.540273       3.099529
                                                         1.999996      -2.812174
                                                         0.894040      -1.237616
                                                         0.439257      -0.437359
                                                         0.189498      -0.040147
                                                         0.083802      -0.002245
                                                         0.052949      -0.000233
                          1      11    5fxz2             2.540273       1.789514
                                                         1.999996      -1.623609
                                                         0.894040      -0.714538
                                                         0.439257      -0.252510
                                                         0.189498      -0.023179
                                                         0.083802      -0.001296
                                                         0.052949      -0.000134
                          1      11    5fy3              2.540273       0.800295
                                                         1.999996      -0.726100
                                                         0.894040      -0.319551
                                                         0.439257      -0.112926
                                                         0.189498      -0.010366
                                                         0.083802      -0.000580
                                                         0.052949      -0.000060
                          1      11    5fy2z             2.540273       1.789514
                                                         1.999996      -1.623609
                                                         0.894040      -0.714538
                                                         0.439257      -0.252510
                                                         0.189498      -0.023179
                                                         0.083802      -0.001296
                                                         0.052949      -0.000134
                          1      11    5fyz2             2.540273       1.789514
                                                         1.999996      -1.623609
                                                         0.894040      -0.714538
                                                         0.439257      -0.252510
                                                         0.189498      -0.023179
                                                         0.083802      -0.001296
                                                         0.052949      -0.000134
                          1      11    5fz3              2.540273       0.800295
                                                         1.999996      -0.726100
                                                         0.894040      -0.319551
                                                         0.439257      -0.112926
                                                         0.189498      -0.010366
                                                         0.083802      -0.000580
                                                         0.052949      -0.000060

     RI Auxiliary Basis Set                                 def2-SVP-RIFIT-mod-2

       Number of orbital shell sets:                                          17
       Number of orbital shells:                                              17
       Number of primitive Cartesian functions:                               17
       Number of Cartesian basis functions:                                   91
       Number of spherical basis functions:                                   69
       Norm type:                                                              2

       Normalised Cartesian orbitals:

                        Set   Shell   Orbital            Exponent    Coefficient

                          1       1    1s                0.185545       0.201487

                          2       1    1px               0.223731       0.219330
                          2       1    1py               0.223731       0.219330
                          2       1    1pz               0.223731       0.219330

                          3       1    1dx2              0.346956       0.258160
                          3       1    1dxy              0.346956       0.447147
                          3       1    1dxz              0.346956       0.447147
                          3       1    1dy2              0.346956       0.258160
                          3       1    1dyz              0.346956       0.447147
                          3       1    1dz2              0.346956       0.258160

                          4       1    1s                0.360392       0.331506

                          5       1    1fx3              0.410523       0.198593
                          5       1    1fx2y             0.410523       0.444066
                          5       1    1fx2z             0.410523       0.444066
                          5       1    1fxy2             0.410523       0.444066
                          5       1    1fxyz             0.410523       0.769146
                          5       1    1fxz2             0.410523       0.444066
                          5       1    1fy3              0.410523       0.198593
                          5       1    1fy2z             0.410523       0.444066
                          5       1    1fyz2             0.410523       0.444066
                          5       1    1fz3              0.410523       0.198593

                          6       1    1px               0.498778       0.597481
                          6       1    1py               0.498778       0.597481
                          6       1    1pz               0.498778       0.597481

                          7       1    1gx4              0.570000       0.237187
                          7       1    1gx3y             0.570000       0.627538
                          7       1    1gx3z             0.570000       0.627538
                          7       1    1gx2y2            0.570000       0.810149
                          7       1    1gx2yz            0.570000       1.403218
                          7       1    1gx2z2            0.570000       0.810149
                          7       1    1gxy3             0.570000       0.627538
                          7       1    1gxy2z            0.570000       1.403218
                          7       1    1gxyz2            0.570000       1.403218
                          7       1    1gxz3             0.570000       0.627538
                          7       1    1gy4              0.570000       0.237187
                          7       1    1gy3z             0.570000       0.627538
                          7       1    1gy2z2            0.570000       0.810149
                          7       1    1gyz3             0.570000       0.627538
                          7       1    1gz4              0.570000       0.237187

                          8       1    1dx2              0.576698       0.628158
                          8       1    1dxy              0.576698       1.088002
                          8       1    1dxz              0.576698       1.088002
                          8       1    1dy2              0.576698       0.628158
                          8       1    1dyz              0.576698       1.088002
                          8       1    1dz2              0.576698       0.628158

                          9       1    1s                0.619083       0.497418

                         10       1    1s                1.092167       0.761424

                         11       1    1fx3              1.103628       1.837832
                         11       1    1fx2y             1.103628       4.109516
                         11       1    1fx2z             1.103628       4.109516
                         11       1    1fxy2             1.103628       4.109516
                         11       1    1fxyz             1.103628       7.117891
                         11       1    1fxz2             1.103628       4.109516
                         11       1    1fy3              1.103628       1.837832
                         11       1    1fy2z             1.103628       4.109516
                         11       1    1fyz2             1.103628       4.109516
                         11       1    1fz3              1.103628       1.837832

                         12       1    1px               1.390701       2.152694
                         12       1    1py               1.390701       2.152694
                         12       1    1pz               1.390701       2.152694

                         13       1    1dx2              1.439171       3.112475
                         13       1    1dxy              1.439171       5.390965
                         13       1    1dxz              1.439171       5.390965
                         13       1    1dy2              1.439171       3.112475
                         13       1    1dyz              1.439171       5.390965
                         13       1    1dz2              1.439171       3.112475

                         14       1    1gx4              1.615953       4.164995
                         14       1    1gx3y             1.615953      11.019542
                         14       1    1gx3z             1.615953      11.019542
                         14       1    1gx2y2            1.615953      14.226167
                         14       1    1gx2yz            1.615953      24.640444
                         14       1    1gx2z2            1.615953      14.226167
                         14       1    1gxy3             1.615953      11.019542
                         14       1    1gxy2z            1.615953      24.640444
                         14       1    1gxyz2            1.615953      24.640444
                         14       1    1gxz3             1.615953      11.019542
                         14       1    1gy4              1.615953       4.164995
                         14       1    1gy3z             1.615953      11.019542
                         14       1    1gy2z2            1.615953      14.226167
                         14       1    1gyz3             1.615953      11.019542
                         14       1    1gz4              1.615953       4.164995

                         15       1    1px               2.100661       3.604831
                         15       1    1py               2.100661       3.604831
                         15       1    1pz               2.100661       3.604831

                         16       1    1s                2.197983       1.286555

                         17       1    1dx2              2.302596       7.084198
                         17       1    1dxy              2.302596      12.270190
                         17       1    1dxz              2.302596      12.270190
                         17       1    1dy2              2.302596       7.084198
                         17       1    1dyz              2.302596      12.270190
                         17       1    1dz2              2.302596       7.084198

       Atomic covalent radius [Angstrom]:                                  1.300

       Atomic van der Waals radius [Angstrom]:                             1.670

     GTH Potential information for                                  GTH-PADE-q14

       Description:                       Goedecker-Teter-Hutter pseudopotential
                                           Goedecker et al., PRB 54, 1703 (1996)
                                          Hartwigsen et al., PRB 58, 3641 (1998)
                                                      Krack, TCA 114, 145 (2005)

       Gaussian exponent of the core charge distribution:               2.704164
       Electronic configuration (s p d ...):                           3   6   5

       Parameters of the local part of the GTH pseudopotential:

                          rloc        C1          C2          C3          C4
                        0.430000   16.237452    1.496536

       Parameters of the non-local part of the GTH pseudopotential:

                   l      r(l)      h(i,j,l)

                   0    0.376255    3.362426    2.048528
                                    2.048528   -5.289276
                   1    0.361734   -0.379571    1.718923
                                    1.718923   -4.067713
                   2    0.525828   -1.543211   -0.473760
                                   -0.473760    1.074388

  2. Atomic kind: S                                     Number of atoms:     200

     Orbital Basis Set                                           TZVP-MOLOPT-GTH

       Number of orbital shell sets:                                           1
       Number of orbital shells:                                               7
       Number of primitive Cartesian functions:                                6
       Number of Cartesian basis functions:                                   18
       Number of spherical basis functions:                                   17
       Norm type:                                                              2

       Normalised Cartesian orbitals:

                        Set   Shell   Orbital            Exponent    Coefficient

                          1       1    2s                3.817591       0.157264
                                                         2.362752      -0.510082
                                                         0.861004      -0.067545
                                                         0.417525       0.341507
                                                         0.181514       0.065073
                                                         0.070571       0.000166

                          1       2    3s                3.817591      -0.204385
                                                         2.362752       0.558740
                                                         0.861004       0.301625
                                                         0.417525      -0.627222
                                                         0.181514       0.190853
                                                         0.070571       0.080605

                          1       3    4s                3.817591      -1.028748
                                                         2.362752       1.936036
                                                         0.861004       0.140522
                                                         0.417525      -0.138514
                                                         0.181514       0.081374
                                                         0.070571      -0.058475

                          1       4    3px               3.817591      -0.172386
                                                         2.362752      -0.175607
                                                         0.861004       0.224215
                                                         0.417525       0.286358
                                                         0.181514       0.049699
                                                         0.070571       0.001588
                          1       4    3py               3.817591      -0.172386
                                                         2.362752      -0.175607
                                                         0.861004       0.224215
                                                         0.417525       0.286358
                                                         0.181514       0.049699
                                                         0.070571       0.001588
                          1       4    3pz               3.817591      -0.172386
                                                         2.362752      -0.175607
                                                         0.861004       0.224215
                                                         0.417525       0.286358
                                                         0.181514       0.049699
                                                         0.070571       0.001588

                          1       5    4px               3.817591       0.011373
                                                         2.362752       0.235342
                                                         0.861004      -0.175793
                                                         0.417525      -0.223923
                                                         0.181514       0.115877
                                                         0.070571       0.033489
                          1       5    4py               3.817591       0.011373
                                                         2.362752       0.235342
                                                         0.861004      -0.175793
                                                         0.417525      -0.223923
                                                         0.181514       0.115877
                                                         0.070571       0.033489
                          1       5    4pz               3.817591       0.011373
                                                         2.362752       0.235342
                                                         0.861004      -0.175793
                                                         0.417525      -0.223923
                                                         0.181514       0.115877
                                                         0.070571       0.033489

                          1       6    5px               3.817591      -0.999910
                                                         2.362752       1.827963
                                                         0.861004      -1.566915
                                                         0.417525       0.819066
                                                         0.181514       0.069667
                                                         0.070571      -0.035715
                          1       6    5py               3.817591      -0.999910
                                                         2.362752       1.827963
                                                         0.861004      -1.566915
                                                         0.417525       0.819066
                                                         0.181514       0.069667
                                                         0.070571      -0.035715
                          1       6    5pz               3.817591      -0.999910
                                                         2.362752       1.827963
                                                         0.861004      -1.566915
                                                         0.417525       0.819066
                                                         0.181514       0.069667
                                                         0.070571      -0.035715

                          1       7    4dx2              3.817591       0.133631
                                                         2.362752       0.806297
                                                         0.861004       0.453606
                                                         0.417525       0.175089
                                                         0.181514       0.017666
                                                         0.070571      -0.000330
                          1       7    4dxy              3.817591       0.231456
                                                         2.362752       1.396548
                                                         0.861004       0.785669
                                                         0.417525       0.303263
                                                         0.181514       0.030598
                                                         0.070571      -0.000571
                          1       7    4dxz              3.817591       0.231456
                                                         2.362752       1.396548
                                                         0.861004       0.785669
                                                         0.417525       0.303263
                                                         0.181514       0.030598
                                                         0.070571      -0.000571
                          1       7    4dy2              3.817591       0.133631
                                                         2.362752       0.806297
                                                         0.861004       0.453606
                                                         0.417525       0.175089
                                                         0.181514       0.017666
                                                         0.070571      -0.000330
                          1       7    4dyz              3.817591       0.231456
                                                         2.362752       1.396548
                                                         0.861004       0.785669
                                                         0.417525       0.303263
                                                         0.181514       0.030598
                                                         0.070571      -0.000571
                          1       7    4dz2              3.817591       0.133631
                                                         2.362752       0.806297
                                                         0.861004       0.453606
                                                         0.417525       0.175089
                                                         0.181514       0.017666
                                                         0.070571      -0.000330

     RI Auxiliary Basis Set                                 def2-SVP-RIFIT-mod-1

       Number of orbital shell sets:                                          13
       Number of orbital shells:                                              13
       Number of primitive Cartesian functions:                               13
       Number of Cartesian basis functions:                                   54
       Number of spherical basis functions:                                   45
       Norm type:                                                              2

       Normalised Cartesian orbitals:

                        Set   Shell   Orbital            Exponent    Coefficient

                          1       1    1s                0.197811       0.211396

                          2       1    1dx2              0.242242       0.137672
                          2       1    1dxy              0.242242       0.238455
                          2       1    1dxz              0.242242       0.238455
                          2       1    1dy2              0.242242       0.137672
                          2       1    1dyz              0.242242       0.238455
                          2       1    1dz2              0.242242       0.137672

                          3       1    1px               0.324549       0.349172
                          3       1    1py               0.324549       0.349172
                          3       1    1pz               0.324549       0.349172

                          4       1    1s                0.389135       0.351144

                          5       1    1fx3              0.529340       0.351850
                          5       1    1fx2y             0.529340       0.786760
                          5       1    1fx2z             0.529340       0.786760
                          5       1    1fxy2             0.529340       0.786760
                          5       1    1fxyz             0.529340       1.362708
                          5       1    1fxz2             0.529340       0.786760
                          5       1    1fy3              0.529340       0.351850
                          5       1    1fy2z             0.529340       0.786760
                          5       1    1fyz2             0.529340       0.786760
                          5       1    1fz3              0.529340       0.351850

                          6       1    1dx2              0.603367       0.679871
                          6       1    1dxy              0.603367       1.177572
                          6       1    1dxz              0.603367       1.177572
                          6       1    1dy2              0.603367       0.679871
                          6       1    1dyz              0.603367       1.177572
                          6       1    1dz2              0.603367       0.679871

                          7       1    1px               0.631252       0.802035
                          7       1    1py               0.631252       0.802035
                          7       1    1pz               0.631252       0.802035

                          8       1    1s                0.936032       0.678232

                          9       1    1dx2              1.115385       1.992520
                          9       1    1dxy              1.115385       3.451146
                          9       1    1dxz              1.115385       3.451146
                          9       1    1dy2              1.115385       1.992520
                          9       1    1dyz              1.115385       3.451146
                          9       1    1dz2              1.115385       1.992520

                         10       1    1fx3              1.132321       1.947088
                         10       1    1fx2y             1.132321       4.353822
                         10       1    1fx2z             1.132321       4.353822
                         10       1    1fxy2             1.132321       4.353822
                         10       1    1fxyz             1.132321       7.541040
                         10       1    1fxz2             1.132321       4.353822
                         10       1    1fy3              1.132321       1.947088
                         10       1    1fy2z             1.132321       4.353822
                         10       1    1fyz2             1.132321       4.353822
                         10       1    1fz3              1.132321       1.947088

                         11       1    1px               1.173306       1.740620
                         11       1    1py               1.173306       1.740620
                         11       1    1pz               1.173306       1.740620

                         12       1    1s                2.064006       1.227279

                         13       1    1px               2.625789       4.764474
                         13       1    1py               2.625789       4.764474
                         13       1    1pz               2.625789       4.764474

       Atomic covalent radius [Angstrom]:                                  1.020

       Atomic van der Waals radius [Angstrom]:                             1.800

     GTH Potential information for                                   GTH-PADE-q6

       Description:                       Goedecker-Teter-Hutter pseudopotential
                                           Goedecker et al., PRB 54, 1703 (1996)
                                          Hartwigsen et al., PRB 58, 3641 (1998)
                                                      Krack, TCA 114, 145 (2005)

       Gaussian exponent of the core charge distribution:               2.834467
       Electronic configuration (s p d ...):                               2   4

       Parameters of the local part of the GTH pseudopotential:

                          rloc        C1          C2          C3          C4
                        0.420000   -6.554492

       Parameters of the non-local part of the GTH pseudopotential:

                   l      r(l)      h(i,j,l)

                   0    0.361757    7.905303   -1.731881
                                   -1.731881    4.471698
                   1    0.405285    3.866579


 MOLECULE KIND INFORMATION


 All atoms are their own molecule, skipping detailed information


 TOTAL NUMBERS AND MAXIMUM NUMBERS

  Total number of            - Atomic kinds:                                   2
                             - Atoms:                                        300
                             - Shell sets:                                   300
                             - Shells:                                      2500
                             - Primitive Cartesian functions:               1900
                             - Cartesian basis functions:                   7700
                             - Spherical basis functions:                   6900

  Maximum angular momentum of- Orbital basis functions:                        3
                             - Local part of the GTH pseudopotential:          2
                             - Non-local part of the GTH pseudopotential:      4


 MODULE QUICKSTEP: ATOMIC COORDINATES IN ANGSTROM

   Atom Kind Element         X             Y             Z       Z(eff)     Mass
      1    1 Mo   42      0.000000      1.818650      3.075000  14.0000  95.9600
      2    2 S    16      0.000000      3.637310      1.488300   6.0000  32.0650
      3    2 S    16      0.000000      3.637310      4.661700   6.0000  32.0650
      4    1 Mo   42      3.150000      1.818650      3.075000  14.0000  95.9600
      5    2 S    16      3.150000      3.637310      1.488300   6.0000  32.0650
      6    2 S    16      3.150000      3.637310      4.661700   6.0000  32.0650
      7    1 Mo   42      6.300000      1.818650      3.075000  14.0000  95.9600
      8    2 S    16      6.300000      3.637310      1.488300   6.0000  32.0650
      9    2 S    16      6.300000      3.637310      4.661700   6.0000  32.0650
     10    1 Mo   42      9.450000      1.818650      3.075000  14.0000  95.9600
     11    2 S    16      9.450000      3.637310      1.488300   6.0000  32.0650
     12    2 S    16      9.450000      3.637310      4.661700   6.0000  32.0650
     13    1 Mo   42     12.600000      1.818650      3.075000  14.0000  95.9600
     14    2 S    16     12.600000      3.637310      1.488300   6.0000  32.0650
     15    2 S    16     12.600000      3.637310      4.661700   6.0000  32.0650
     16    1 Mo   42     15.750000      1.818650      3.075000  14.0000  95.9600
     17    2 S    16     15.750000      3.637310      1.488300   6.0000  32.0650
     18    2 S    16     15.750000      3.637310      4.661700   6.0000  32.0650
     19    1 Mo   42     18.900000      1.818650      3.075000  14.0000  95.9600
     20    2 S    16     18.900000      3.637310      1.488300   6.0000  32.0650
     21    2 S    16     18.900000      3.637310      4.661700   6.0000  32.0650
     22    1 Mo   42     22.050000      1.818650      3.075000  14.0000  95.9600
     23    2 S    16     22.050000      3.637310      1.488300   6.0000  32.0650
     24    2 S    16     22.050000      3.637310      4.661700   6.0000  32.0650
     25    1 Mo   42     25.200000      1.818650      3.075000  14.0000  95.9600
     26    2 S    16     25.200000      3.637310      1.488300   6.0000  32.0650
     27    2 S    16     25.200000      3.637310      4.661700   6.0000  32.0650
     28    1 Mo   42     28.350000      1.818650      3.075000  14.0000  95.9600
     29    2 S    16     28.350000      3.637310      1.488300   6.0000  32.0650
     30    2 S    16     28.350000      3.637310      4.661700   6.0000  32.0650
     31    1 Mo   42     -1.575000      4.546630      3.075000  14.0000  95.9600
     32    2 S    16     -1.575000      6.365290      1.488300   6.0000  32.0650
     33    2 S    16     -1.575000      6.365290      4.661700   6.0000  32.0650
     34    1 Mo   42      1.575000      4.546630      3.075000  14.0000  95.9600
     35    2 S    16      1.575000      6.365290      1.488300   6.0000  32.0650
     36    2 S    16      1.575000      6.365290      4.661700   6.0000  32.0650
     37    1 Mo   42      4.725000      4.546630      3.075000  14.0000  95.9600
     38    2 S    16      4.725000      6.365290      1.488300   6.0000  32.0650
     39    2 S    16      4.725000      6.365290      4.661700   6.0000  32.0650
     40    1 Mo   42      7.875000      4.546630      3.075000  14.0000  95.9600
     41    2 S    16      7.875000      6.365290      1.488300   6.0000  32.0650
     42    2 S    16      7.875000      6.365290      4.661700   6.0000  32.0650
     43    1 Mo   42     11.025000      4.546630      3.075000  14.0000  95.9600
     44    2 S    16     11.025000      6.365290      1.488300   6.0000  32.0650
     45    2 S    16     11.025000      6.365290      4.661700   6.0000  32.0650
     46    1 Mo   42     14.175000      4.546630      3.075000  14.0000  95.9600
     47    2 S    16     14.175000      6.365290      1.488300   6.0000  32.0650
     48    2 S    16     14.175000      6.365290      4.661700   6.0000  32.0650
     49    1 Mo   42     17.325000      4.546630      3.075000  14.0000  95.9600
     50    2 S    16     17.325000      6.365290      1.488300   6.0000  32.0650
     51    2 S    16     17.325000      6.365290      4.661700   6.0000  32.0650
     52    1 Mo   42     20.475000      4.546630      3.075000  14.0000  95.9600
     53    2 S    16     20.475000      6.365290      1.488300   6.0000  32.0650
     54    2 S    16     20.475000      6.365290      4.661700   6.0000  32.0650
     55    1 Mo   42     23.625000      4.546630      3.075000  14.0000  95.9600
     56    2 S    16     23.625000      6.365290      1.488300   6.0000  32.0650
     57    2 S    16     23.625000      6.365290      4.661700   6.0000  32.0650
     58    1 Mo   42     26.775000      4.546630      3.075000  14.0000  95.9600
     59    2 S    16     26.775000      6.365290      1.488300   6.0000  32.0650
     60    2 S    16     26.775000      6.365290      4.661700   6.0000  32.0650
     61    1 Mo   42     -3.150000      7.274610      3.075000  14.0000  95.9600
     62    2 S    16     -3.150000      9.093270      1.488300   6.0000  32.0650
     63    2 S    16     -3.150000      9.093270      4.661700   6.0000  32.0650
     64    1 Mo   42      0.000000      7.274610      3.075000  14.0000  95.9600
     65    2 S    16      0.000000      9.093270      1.488300   6.0000  32.0650
     66    2 S    16      0.000000      9.093270      4.661700   6.0000  32.0650
     67    1 Mo   42      3.150000      7.274610      3.075000  14.0000  95.9600
     68    2 S    16      3.150000      9.093270      1.488300   6.0000  32.0650
     69    2 S    16      3.150000      9.093270      4.661700   6.0000  32.0650
     70    1 Mo   42      6.300000      7.274610      3.075000  14.0000  95.9600
     71    2 S    16      6.300000      9.093270      1.488300   6.0000  32.0650
     72    2 S    16      6.300000      9.093270      4.661700   6.0000  32.0650
     73    1 Mo   42      9.450000      7.274610      3.075000  14.0000  95.9600
     74    2 S    16      9.450000      9.093270      1.488300   6.0000  32.0650
     75    2 S    16      9.450000      9.093270      4.661700   6.0000  32.0650
     76    1 Mo   42     12.600000      7.274610      3.075000  14.0000  95.9600
     77    2 S    16     12.600000      9.093270      1.488300   6.0000  32.0650
     78    2 S    16     12.600000      9.093270      4.661700   6.0000  32.0650
     79    1 Mo   42     15.750000      7.274610      3.075000  14.0000  95.9600
     80    2 S    16     15.750000      9.093270      1.488300   6.0000  32.0650
     81    2 S    16     15.750000      9.093270      4.661700   6.0000  32.0650
     82    1 Mo   42     18.900000      7.274610      3.075000  14.0000  95.9600
     83    2 S    16     18.900000      9.093270      1.488300   6.0000  32.0650
     84    2 S    16     18.900000      9.093270      4.661700   6.0000  32.0650
     85    1 Mo   42     22.050000      7.274610      3.075000  14.0000  95.9600
     86    2 S    16     22.050000      9.093270      1.488300   6.0000  32.0650
     87    2 S    16     22.050000      9.093270      4.661700   6.0000  32.0650
     88    1 Mo   42     25.200000      7.274610      3.075000  14.0000  95.9600
     89    2 S    16     25.200000      9.093270      1.488300   6.0000  32.0650
     90    2 S    16     25.200000      9.093270      4.661700   6.0000  32.0650
     91    1 Mo   42     -4.725000     10.002590      3.075000  14.0000  95.9600
     92    2 S    16     -4.725000     11.821250      1.488300   6.0000  32.0650
     93    2 S    16     -4.725000     11.821250      4.661700   6.0000  32.0650
     94    1 Mo   42     -1.575000     10.002590      3.075000  14.0000  95.9600
     95    2 S    16     -1.575000     11.821250      1.488300   6.0000  32.0650
     96    2 S    16     -1.575000     11.821250      4.661700   6.0000  32.0650
     97    1 Mo   42      1.575000     10.002590      3.075000  14.0000  95.9600
     98    2 S    16      1.575000     11.821250      1.488300   6.0000  32.0650
     99    2 S    16      1.575000     11.821250      4.661700   6.0000  32.0650
    100    1 Mo   42      4.725000     10.002590      3.075000  14.0000  95.9600
    101    2 S    16      4.725000     11.821250      1.488300   6.0000  32.0650
    102    2 S    16      4.725000     11.821250      4.661700   6.0000  32.0650
    103    1 Mo   42      7.875000     10.002590      3.075000  14.0000  95.9600
    104    2 S    16      7.875000     11.821250      1.488300   6.0000  32.0650
    105    2 S    16      7.875000     11.821250      4.661700   6.0000  32.0650
    106    1 Mo   42     11.025000     10.002590      3.075000  14.0000  95.9600
    107    2 S    16     11.025000     11.821250      1.488300   6.0000  32.0650
    108    2 S    16     11.025000     11.821250      4.661700   6.0000  32.0650
    109    1 Mo   42     14.175000     10.002590      3.075000  14.0000  95.9600
    110    2 S    16     14.175000     11.821250      1.488300   6.0000  32.0650
    111    2 S    16     14.175000     11.821250      4.661700   6.0000  32.0650
    112    1 Mo   42     17.325000     10.002590      3.075000  14.0000  95.9600
    113    2 S    16     17.325000     11.821250      1.488300   6.0000  32.0650
    114    2 S    16     17.325000     11.821250      4.661700   6.0000  32.0650
    115    1 Mo   42     20.475000     10.002590      3.075000  14.0000  95.9600
    116    2 S    16     20.475000     11.821250      1.488300   6.0000  32.0650
    117    2 S    16     20.475000     11.821250      4.661700   6.0000  32.0650
    118    1 Mo   42     23.625000     10.002590      3.075000  14.0000  95.9600
    119    2 S    16     23.625000     11.821250      1.488300   6.0000  32.0650
    120    2 S    16     23.625000     11.821250      4.661700   6.0000  32.0650
    121    1 Mo   42     -6.300000     12.730570      3.075000  14.0000  95.9600
    122    2 S    16     -6.300000     14.549230      1.488300   6.0000  32.0650
    123    2 S    16     -6.300000     14.549230      4.661700   6.0000  32.0650
    124    1 Mo   42     -3.150000     12.730570      3.075000  14.0000  95.9600
    125    2 S    16     -3.150000     14.549230      1.488300   6.0000  32.0650
    126    2 S    16     -3.150000     14.549230      4.661700   6.0000  32.0650
    127    1 Mo   42      0.000000     12.730570      3.075000  14.0000  95.9600
    128    2 S    16      0.000000     14.549230      1.488300   6.0000  32.0650
    129    2 S    16      0.000000     14.549230      4.661700   6.0000  32.0650
    130    1 Mo   42      3.150000     12.730570      3.075000  14.0000  95.9600
    131    2 S    16      3.150000     14.549230      1.488300   6.0000  32.0650
    132    2 S    16      3.150000     14.549230      4.661700   6.0000  32.0650
    133    1 Mo   42      6.300000     12.730570      3.075000  14.0000  95.9600
    134    2 S    16      6.300000     14.549230      1.488300   6.0000  32.0650
    135    2 S    16      6.300000     14.549230      4.661700   6.0000  32.0650
    136    1 Mo   42      9.450000     12.730570      3.075000  14.0000  95.9600
    137    2 S    16      9.450000     14.549230      1.488300   6.0000  32.0650
    138    2 S    16      9.450000     14.549230      4.661700   6.0000  32.0650
    139    1 Mo   42     12.600000     12.730570      3.075000  14.0000  95.9600
    140    2 S    16     12.600000     14.549230      1.488300   6.0000  32.0650
    141    2 S    16     12.600000     14.549230      4.661700   6.0000  32.0650
    142    1 Mo   42     15.750000     12.730570      3.075000  14.0000  95.9600
    143    2 S    16     15.750000     14.549230      1.488300   6.0000  32.0650
    144    2 S    16     15.750000     14.549230      4.661700   6.0000  32.0650
    145    1 Mo   42     18.900000     12.730570      3.075000  14.0000  95.9600
    146    2 S    16     18.900000     14.549230      1.488300   6.0000  32.0650
    147    2 S    16     18.900000     14.549230      4.661700   6.0000  32.0650
    148    1 Mo   42     22.050000     12.730570      3.075000  14.0000  95.9600
    149    2 S    16     22.050000     14.549230      1.488300   6.0000  32.0650
    150    2 S    16     22.050000     14.549230      4.661700   6.0000  32.0650
    151    1 Mo   42     -7.875000     15.458550      3.075000  14.0000  95.9600
    152    2 S    16     -7.875000     17.277210      1.488300   6.0000  32.0650
    153    2 S    16     -7.875000     17.277210      4.661700   6.0000  32.0650
    154    1 Mo   42     -4.725000     15.458550      3.075000  14.0000  95.9600
    155    2 S    16     -4.725000     17.277210      1.488300   6.0000  32.0650
    156    2 S    16     -4.725000     17.277210      4.661700   6.0000  32.0650
    157    1 Mo   42     -1.575000     15.458550      3.075000  14.0000  95.9600
    158    2 S    16     -1.575000     17.277210      1.488300   6.0000  32.0650
    159    2 S    16     -1.575000     17.277210      4.661700   6.0000  32.0650
    160    1 Mo   42      1.575000     15.458550      3.075000  14.0000  95.9600
    161    2 S    16      1.575000     17.277210      1.488300   6.0000  32.0650
    162    2 S    16      1.575000     17.277210      4.661700   6.0000  32.0650
    163    1 Mo   42      4.725000     15.458550      3.075000  14.0000  95.9600
    164    2 S    16      4.725000     17.277210      1.488300   6.0000  32.0650
    165    2 S    16      4.725000     17.277210      4.661700   6.0000  32.0650
    166    1 Mo   42      7.875000     15.458550      3.075000  14.0000  95.9600
    167    2 S    16      7.875000     17.277210      1.488300   6.0000  32.0650
[...]
 # multiplications                             65
 max memory usage/rank             894.398464E+06
 # max total images/rank                        5
 # max 3D layers                                1
 # MPI messages exchanged                12812800
 MPI messages size (bytes):
  total size                         2.321807E+12
  min size                           0.000000E+00
  max size                         423.584000E+03
  average size                     181.209922E+03
 MPI breakdown and total messages size (bytes):
             size <=      128               75600                        0
       128 < size <=     8192                 360                  2496960
      8192 < size <=    32768               18750                279092640
     32768 < size <=   131072             6145290             365706002400
    131072 < size <=  4194304             6572800            1955818800000
   4194304 < size <= 16777216                   0                        0
  16777216 < size                               0                        0
 -------------------------------------------------------------------------------

 *** WARNING in dbcsr_mm.F:290 :: Using a non-square number of MPI ranks   ***
 *** might lead to poor performance. Used ranks: 1280 Suggested: 1296 2601 ***

 -------------------------------------------------------------------------------
 -                                                                             -
 -                      DBCSR MESSAGE PASSING PERFORMANCE                      -
 -                                                                             -
 -------------------------------------------------------------------------------
 ROUTINE             CALLS      AVE VOLUME [Bytes]
 MP_Bcast              135                     12.
 MP_Allreduce          737                     15.
 MP_Alltoall        100767                4187372.
 MP_ISend            20800                  89039.
 MP_IRecv            20800                  88373.
 -------------------------------------------------------------------------------

 -------------------------------------------------------------------------------
 -                                                                             -
 -                                DBM STATISTICS                               -
 -                                                                             -
 -------------------------------------------------------------------------------
    M  x    N  x    K                                          COUNT     PERCENT
  ???  x   ??  x   ??                                   169622467348      11.51%
   ??  x   ??  x   ??                                    31681684258       2.15%
   ??  x   ??  x >999                                     1201582544       0.08%
   ??  x  ???  x    ?                                    39114395716       2.66%
   ??  x   ??  x  ???                                   175523111607      11.91%
   ??  x >999  x    ?                                     8004166108       0.54%
   ??  x  ???  x   ??                                     7881060000       0.53%
    ?  x    ?  x  ???                                   140089222777       9.51%
   ??  x    ?  x  ???                                    28378877855       1.93%
    ?  x >999  x    ?                                    45267818823       3.07%
    ?  x   ??  x  ???                                    27966418563       1.90%
    ?  x  ???  x    ?                                   221223784968      15.02%
    ?  x    ?  x    ?                                   478776769599      32.50%
   ??  x    ?  x >999                                     6123638728       0.42%
    ?  x   ??  x >999                                     6066988310       0.41%
    ?  x  ???  x   ??                                    44629726486       3.03%
   ??  x >999  x   ??                                     1617990000       0.11%
    ?  x    ?  x >999                                    30861383910       2.09%
    ?  x >999  x   ??                                     9162754004       0.62%
 -------------------------------------------------------------------------------

 -------------------------------------------------------------------------------
 -                                                                             -
 -                                GRID STATISTICS                              -
 -                                                                             -
 -------------------------------------------------------------------------------
 LP    KERNEL             BACKEND                              COUNT     PERCENT
 5     collocate general  REF                               55411200      24.31%
 5     integrate general  REF                               55411200      24.31%
 4     collocate general  REF                               37824000      16.59%
 4     integrate general  REF                               37824000      16.59%
 6     collocate general  REF                               20166400       8.85%
 6     integrate general  REF                               20166400       8.85%
 0     collocate general  REF                                 768000       0.34%
 0     integrate general  REF                                 384000       0.17%
 -------------------------------------------------------------------------------

 MEMORY| Estimated peak process memory [MiB]                                5447

 -------------------------------------------------------------------------------
 ----                             MULTIGRID INFO                            ----
 -------------------------------------------------------------------------------
 count for grid        1:       39884540          cutoff [a.u.]          250.00
 count for grid        2:       17736780          cutoff [a.u.]           83.33
 count for grid        3:       13433540          cutoff [a.u.]           27.78
 count for grid        4:        4944240          cutoff [a.u.]            9.26
 total gridlevel count  :       75999100

 -------------------------------------------------------------------------------
 -                                                                             -
 -                         MESSAGE PASSING PERFORMANCE                         -
 -                                                                             -
 -------------------------------------------------------------------------------

 ROUTINE             CALLS      AVE VOLUME [Bytes]
 MP_Group             5945
 MP_Bcast             8016                 717921.
 MP_Allreduce        12273                  15655.
 MP_Sync              9494
 MP_Alltoall          4979
 MP_SendRecv        245568                  22720.
 MP_ISendRecv       245568                  22720.
 MP_Wait            261865
 MP_comm_split        3471
 MP_ISend           721980                 252468.
 MP_IRecv           741510                 264187.
 -------------------------------------------------------------------------------


 -------------------------------------------------------------------------------
 -                                                                             -
 -                           R E F E R E N C E S                               -
 -                                                                             -
 -------------------------------------------------------------------------------
 
 CP2K version 2023.1 (Development Version), the CP2K developers group (2023).
 CP2K is freely available from https://www.cp2k.org/ .

 Kuehne,Thomas D.; Iannuzzi,Marcella; Del Ben,Mauro;
 Rybkin,Vladimir V.; Seewald,Patrick; Stein,Frederick; Laino,Teodoro;
 Khaliullin,Rustam Z.; Schuett,Ole; Schiffmann,Florian; Golze,Dorothea;
 Wilhelm,Jan; Chulkov,Sergey; Bani-Hashemian,Mohammad Hossein;
 Weber,Valery; Borstnik,Urban; Taillefumier,Mathieu;
 Jakobovits,Alice Shoshana; Lazzaro,Alfio; Pabst,Hans; Mueller,Tiziano;
 Schade,Robert; Guidon,Manuel; Andermatt,Samuel; Holmberg,Nico;
 Schenter,Gregory K.; Hehn,Anna; Bussy,Augustin; Belleflamme,Fabian;
 Tabacchi,Gloria; Gloess,Andreas; Lass,Michael; Bethune,Iain;
 Mundy,Christopher J.; Plessl,Christian; Watkins,Matt;
 VandeVondele,Joost; Krack,Matthias; Hutter,Juerg. 
 The Journal of Chemical Physics, 152 (19), (2020). 
 CP2K: An electronic structure and molecular dynamics software package -
 Quickstep: Efficient and accurate electronic structure calculations.
 https://doi.org/10.1063/5.0007045

 Wilhelm, J; Golze, D; Talirz, L; Hutter, J; Pignedoli, CA. 
 JOURNAL OF PHYSICAL CHEMISTRY LETTERS, 9, 306-312 (2018). 
 Toward GW calculations on thousands of atoms.
 https://doi.org/10.1021/acs.jpclett.7b02740

 Wilhelm, J; Hutter, J. PHYSICAL REVIEW B, 95, 235123 (2017). 
 Periodic GW calculations in the Gaussian and plane-waves scheme.
 https://doi.org/10.1103/PhysRevB.95.235123

 Wilhelm, J; Del Ben, M; Hutter, J. 
 JOURNAL OF CHEMICAL THEORY AND COMPUTATION, 12, 3623-3635 (2016). 
 GW in the Gaussian and plane waves scheme with application to linear acenes.
 https://doi.org/10.1021/acs.jctc.6b00380

 Wilhelm, J; Seewald, P; Del Ben, M; Hutter, J. 
 JOURNAL OF CHEMICAL THEORY AND COMPUTATION, 12, 5851-5859 (2016). 
 Large-Scale Cubic-Scaling Random Phase Approximation Correlation.
 https://doi.org/10.1021/acs.jctc.6b00840

 Schuett, Ole; Messmer, Peter; Hutter, Juerg; VandeVondele, Joost. 
 Electronic Structure Calculations on Graphics Processing Units, John
 Wiley & Sons, Ltd, 173-190 (2016). 
 GPU-Accelerated Sparse Matrix-Matrix Multiplication for
 Linear Scaling Density Functional Theory.
 https://doi.org/10.1002/9781118670712.ch8

 Heinecke, A; Henry, G; Hutchinson, M; Pabst, H. 
 Proceedings of Intl. Supercomputing Conference, 981-991 (2016). 
 LIBXSMM: Accelerating Small Matrix Multiplications
 by Runtime Code Generation.
 https://doi.org/10.1109/SC.2016.83

 Del Ben, M; Schuett, O; Wentz, T; Messmer, P; Hutter, J;
 VandeVondele, J. 
 COMPUTER PHYSICS COMMUNICATIONS, 187, 120-129 (2015). 
 Enabling simulation at the fifth rung of DFT: Large scale RPA
 calculations with excellent time to solution.
 https://doi.org/10.1016/j.cpc.2014.10.021

 Borstnik, U; VandeVondele, J; Weber, V; Hutter, J. 
 PARALLEL COMPUTING, 40 (5-6), 47-58 (2014). 
 Sparse matrix multiplication: The distributed block-compressed sparse
 row library.
 https://doi.org/10.1016/j.parco.2014.03.012

 Hutter, J; Iannuzzi, M; Schiffmann, F; VandeVondele, J. 
 WIREs Comput Mol Sci., 4 (1), 15-25 (2014). 
 CP2K: atomistic simulations of condensed matter systems.
 https://doi.org/10.1002/wcms.1159

 Marek, A; Blum, V; Johanni, R; Havu, V; Lang, B; Auckenthaler, T;
 Heinecke, A; Bungartz, H; Lederer, H. 
 Journal of Physics: Condensed Matter, 26 (21), (2014). 
 The ELPA library: scalable parallel eigenvalue solutions for
 electronic structure
 theory and computational science.
 https://doi.org/10.1088/0953-8984/26/21/213201

 Del Ben, M; Hutter, J; VandeVondele, J. 
 JOURNAL OF CHEMICAL THEORY AND COMPUTATION, 9 (6), 2654-2671 (2013). 
 Electron Correlation in the Condensed Phase from a Resolution of
 Identity Approach Based on the Gaussian and Plane Waves Scheme.
 https://doi.org/10.1021/ct4002202

 Del Ben, M; Hutter, J; VandeVondele, J. 
 JOURNAL OF CHEMICAL THEORY AND COMPUTATION, 8 (11), 4177-4188 (2012). 
 Second-Order Moller-Plesset Perturbation Theory in the Condensed Phase:
 An Efficient and Massively Parallel Gaussian and Plane Waves Approach.
 https://doi.org/10.1021/ct300531w

 VandeVondele, J; Hutter, J. 
 JOURNAL OF CHEMICAL PHYSICS, 127 (11), 114105 (2007). 
 Gaussian basis sets for accurate calculations on molecular systems in
 gas and condensed phases.
 https://doi.org/10.1063/1.2770708

 Krack, M. 
 THEORETICAL CHEMISTRY ACCOUNTS, 114 (1-3), 145-152 (2005). 
 Pseudopotentials for H to Kr optimized for gradient-corrected
 exchange-correlation functionals.
 https://doi.org/10.1007/s00214-005-0655-y

 VandeVondele, J; Krack, M; Mohamed, F; Parrinello, M; Chassaing, T;
 Hutter, J. COMPUTER PHYSICS COMMUNICATIONS, 167 (2), 103-128 (2005). 
 QUICKSTEP: Fast and accurate density functional calculations using a
 mixed Gaussian and plane waves approach.
 https://doi.org/10.1016/j.cpc.2004.12.014

 Frigo, M; Johnson, SG. 
 PROCEEDINGS OF THE IEEE, 93 (2), 216-231 (2005). 
 The design and implementation of FFTW3.
 https://doi.org/10.1109/JPROC.2004.840301

 Hartwigsen, C; Goedecker, S; Hutter, J. 
 PHYSICAL REVIEW B, 58 (7), 3641-3662 (1998). 
 Relativistic separable dual-space Gaussian pseudopotentials from H to Rn.
 https://doi.org/10.1103/PhysRevB.58.3641

 Lippert, G; Hutter, J; Parrinello, M. 
 MOLECULAR PHYSICS, 92 (3), 477-487 (1997). 
 A hybrid Gaussian and plane wave density functional scheme.
 https://doi.org/10.1080/002689797170220

 Goedecker, S; Teter, M; Hutter, J. 
 PHYSICAL REVIEW B, 54 (3), 1703-1710 (1996). 
 Separable dual-space Gaussian pseudopotentials.
 https://doi.org/10.1103/PhysRevB.54.1703


 -------------------------------------------------------------------------------
 -                                                                             -
 -                                T I M I N G                                  -
 -                                                                             -
 -------------------------------------------------------------------------------
 SUBROUTINE                       CALLS  ASD         SELF TIME        TOTAL TIME
                                MAXIMUM       AVERAGE  MAXIMUM  AVERAGE  MAXIMUM
 CP2K                                 1  1.0    0.042    0.132 8946.869 8946.922
 qs_energies                          1  2.0    0.001    0.039 8946.050 8946.119
 mp2_main                             1  3.0    0.001    0.026 8816.885 8816.936
 mp2_gpw_main                         1  4.0    0.004    0.009 8815.165 8815.216
 rpa_ri_compute_en                    1  5.0    0.000    0.000 8266.582 8266.629
 rpa_num_int                          1  6.0    0.002    0.034 7980.268 7980.326
 dbt_total                         1907  9.8    0.012    0.024 4689.535 4689.561
 dbt_contract                       765 11.0    0.051    0.064 4248.465 4250.406
 dbt_tas_total                     1206 13.4   21.536   25.371 4178.714 4178.738
 dbt_tas_multiply                  1065 12.8    0.003    0.004 4175.288 4175.311
 compute_QP_energies                  1  7.0    0.001    0.023 3180.804 3180.823
 compute_self_energy_cubic_gw_k       1  8.0    0.123    0.136 3180.634 3180.679
 dbt_tas_dbm                       1065 14.8    0.004    0.004 2963.121 2963.137
 rpa_num_int_RPA_matrix_operati      10  7.0    0.000    0.000 2742.868 2742.899
 invert_eps_compute_W_and_Erpa_      10  8.0    0.002    0.021 2742.843 2742.870
 dbm_multiply                      1065 16.8 2164.623 2604.672 2164.623 2604.672
 cp_cfm_heevd                       441 10.2 2129.623 2130.897 2129.623 2130.897
 cp_cfm_power                       312  9.7    0.322    0.859 2122.741 2123.430
 compute_Q_kp_RPA                   260  9.0    0.167    0.770 2109.794 2110.409
 compute_mat_P_omega                  1  7.0    0.001    0.003 2053.872 2053.899
 compute_mat_P_omega_contract        10  8.0    3.474    3.913 2042.923 2042.934
 dbt_tas_mm_2                       289 15.0    0.002    0.002 1714.298 1714.307
 contract_to_self_energy            198  9.0    0.004    0.014 1479.667 1480.321
 parallel_gemm_cfm                 4194 10.2    0.012    0.014 1328.312 1332.681
 parallel_gemm_cfm_cosma           4194 11.2 1328.300 1332.670 1328.300 1332.670
 tensor_operation_3c_W               99  9.0    0.000    0.001 1176.540 1177.143
 mp_sync                           9494 12.7  953.048 1126.795  953.048 1126.795
 compute_mat_P_omega_calc_P_t        90  9.0    0.000    0.000 1025.553 1025.559
 mp_waitall_2                      5598 16.7  675.088  777.724  675.088  777.724
 dbt_tas_mm_3N                      198 16.5    0.000    0.001  588.071  669.619
 mp2_ri_gpw_compute_in                1  5.0    0.002    0.049  548.548  548.554
 compute_mat_P_omega_calc_M_occ      90  9.0    3.485    3.905  509.140  509.145
 compute_Wc_real_space_tau_GW       260  9.0    0.002    0.002  508.566  509.135
 get_2c_integrals                     1  6.0    0.000    0.000  499.551  499.555
 mp_isend_dv                     521929 16.4  101.385  494.729  101.385  494.729
 trafo_to_mo_and_kpoints             21  9.0    0.254    0.292  494.274  494.276
 dbt_tas_communicate_buffer        1955 17.3    0.309    0.448  464.550  477.721
 dbt_tas_replicate                  928 15.0   15.557   37.311  443.591  452.931
 dbm_redistribute                  2394 15.8  406.490  429.129  406.490  429.129
 dbt_tas_replicate_communicate_     717 16.3    0.059    0.091  416.849  427.217
 inversion_of_M_and_mult_with_c       1  7.0    0.000    0.002  400.094  400.099
 dbt_copy                           949 10.8    0.052    0.064  369.285  398.926
 dbt_reshape                        929 11.8   41.941   46.303  366.531  396.194
 dbt_communicate_buffer             929 12.8    0.209    0.246  312.812  338.843
 compute_Wc_real_space_tau_GW_3     260 10.0    0.002    0.002  333.851  336.480
 convert_to_new_pgrid              3195 14.8   28.495   47.710  284.845  295.575
 get_bandstruc_and_k_dependent_       1  6.0    0.001    0.001  286.312  286.325
 create_kp_and_calc_kp_orbitals       3  7.0    0.003    0.015  286.311  286.323
 cp_cfm_geeig                       129  8.0    0.002    0.003  264.778  265.119
 compute_mat_P_omega_calc_M_vir      90  9.0    0.000    0.000  259.341  259.344
 dbt_tas_mm_3T                      396 16.5    0.001    0.001  216.271  248.143
 dbt_tas_mm_1N                      182 15.0    0.000    0.001  160.170  217.878
 compute_Wc_real_space_tau_GW_2     260 10.0    0.022    0.025  166.694  168.021
 cp_cfm_cholesky_invert             260 11.0  163.538  164.338  163.538  164.338
 mp_alltoall_d11v                 46649 12.8  113.071  128.558  113.071  128.558
 scf_env_do_scf                       1  3.0    0.000    0.000  126.766  126.992
 scf_env_do_scf_inner_loop           63  4.0    0.001    0.004  126.766  126.992
 real_space_to_kpoint_transform      37  9.8    2.297    2.446  109.795  109.814
 dbcsr_new_transposed              7512 10.8    0.405    0.425  106.959  107.279
 dbcsr_redistribute                7448 11.9    1.222    1.546  106.475  106.839
 compute_mat_P_omega_copy_M_occ      90  9.0    0.000    0.001   99.494   99.599
 cp_cfm_cholesky_decompose          389  9.7   98.472   98.566   98.472   98.566
 compute_V_by_lattice_sum             1  7.0    0.000    0.014   93.896   93.901
 build_2c_coulomb_matrix_kp           2  8.0    0.000    0.000   82.646   92.438
 lattice_sum                          2  9.0    2.056    2.262   82.645   92.437
 copy_dbcsr_to_fm                  3896 10.4    0.054    0.060   75.292   91.887
 cholesky_decomp_Q                  260  9.0    0.201    0.465   90.786   91.514
 compute_v_transl                 13312 10.0   80.213   89.788   80.539   90.195
 -------------------------------------------------------------------------------

 The number of warnings for this run is : 3
 
 -------------------------------------------------------------------------------
  **** **** ******  **  PROGRAM ENDED AT                 2023-05-31 02:30:02.533
 ***** ** ***  *** **   PROGRAM RAN ON                                  n2cn0167
 **    ****   ******    PROGRAM RAN BY                                  eprop2d1
 ***** **    ** ** **   PROGRAM PROCESS ID                               3628587
  **** **  *******  **  PROGRAM STOPPED IN /scratch/hpc-prf-eprop2d/eprop2d1_Jan
                                           /02_MoS2_MoSe2_WS2_WSe2/1_MoS2/10x10_
                                           PBE/04_reg_RI_1e-2_TZVP_standard_RI/1
                                           _10_minimax
