 DBCSR| CPU Multiplication driver                                           XSMM (U)
 DBCSR| Multrec recursion limit                                              512 (U)
 DBCSR| Multiplication stack size                                           1000 (D)
 DBCSR| Maximum elements for images                                    UNLIMITED (U)
 DBCSR| Multiplicative factor virtual images                                   1 (U)
 DBCSR| Use multiplication densification                                       T (D)
 DBCSR| Multiplication size stacks                                             3 (U)
 DBCSR| Use memory pool for CPU allocation                                     F (U)
 DBCSR| Number of 3D layers                                               SINGLE (U)
 DBCSR| Use MPI memory allocation                                              F (U)
 DBCSR| Use RMA algorithm                                                      F (U)
 DBCSR| Use Communication thread                                               T (U)
 DBCSR| Communication thread load                                             75 (D)
 DBCSR| MPI: My process id                                                     0
 DBCSR| MPI: Number of processes                                            1280
 DBCSR| OMP: Current number of threads                                         4
 DBCSR| OMP: Max number of threads                                             4
 DBCSR| Split modifier for TAS multiplication algorithm                  1.0E+00 (U)


  **** **** ******  **  PROGRAM STARTED AT               2023-06-18 00:49:23.663
 ***** ** ***  *** **   PROGRAM STARTED ON                              n2cn0201
 **    ****   ******    PROGRAM STARTED BY                              eprop2d1
 ***** **    ** ** **   PROGRAM PROCESS ID                                 75083
  **** **  *******  **  PROGRAM STARTED IN /scratch/hpc-prf-eprop2d/eprop2d1_Jan
                                           /02_MoS2_MoSe2_WS2_WSe2/1_MoS2/10x10_
                                           PBE/04_reg_RI_1e-2_TZVP_standard_RI/2
                                           _30_minimax/2_regularization_1.0E-6

 CP2K| version string:                 CP2K version 2023.1 (Development Version)
 CP2K| source code revision number:                                  git:31c55a3
 CP2K| cp2kflags: omp libint fftw3 libxc elpa parallel scalapack cosma xsmm plum
 CP2K|            ed2 spglib sirius libvori libbqb libvdwxc
 CP2K| is freely available from                            https://www.cp2k.org/
 CP2K| Program compiled at                         Sat Jun 10 15:44:41 CEST 2023
 CP2K| Program compiled on                                              n2login4
 CP2K| Program compiled for                                                local
 CP2K| Data directory path    /opt/software/pc2/EB-SW/software/CP2K/2023.1-foss-
 CP2K| Input file name                                                    GW.inp

 GLOBAL| Force Environment number                                              1
 GLOBAL| Basis set file name                                        BASIS_MOLOPT
 GLOBAL| Potential file name                                      GTH_POTENTIALS
 GLOBAL| MM Potential file name                                     MM_POTENTIAL
 GLOBAL| Coordinate file name                                      __STD_INPUT__
 GLOBAL| Method name                                                        CP2K
 GLOBAL| Project name                                                       MoS2
 GLOBAL| Run type                                                         ENERGY
 GLOBAL| FFT library                                                       FFTW3
 GLOBAL| Diagonalization library                                            ELPA
 GLOBAL| DGEMM library                                                      BLAS
 GLOBAL| Minimum number of eigenvectors for ELPA usage                        16
 GLOBAL| Orthonormality check for eigenvectors                          DISABLED
 GLOBAL| Matrix multiplication library                                     COSMA
 GLOBAL| All-to-all communication in single precision                          F
 GLOBAL| FFTs using library dependent lengths                                  F
 GLOBAL| Grid backend                                                       AUTO
 GLOBAL| Global print level                                               MEDIUM
 GLOBAL| MPI I/O enabled                                                       T
 GLOBAL| Total number of message passing processes                          1280
 GLOBAL| Number of threads for this process                                    4
 GLOBAL| This output is from process                                           0
 GLOBAL| Stack size for threads created by OpenMP (OMP_STACKSIZE)        default
 GLOBAL| CPU model name                          AMD EPYC 7763 64-Core Processor
 GLOBAL| CPUID                                                              1002
 GLOBAL| Compiled for CPUID                                                    0

 *** HINT in environment.F:886 :: The compiler target flags (generic) used ***
 *** to build this binary cannot exploit all extensions of this CPU model  ***
 *** (x86_avx2). Consider compiler target flags as part of FCFLAGS and     ***
 *** CFLAGS (ARCH file).                                                   ***


 MEMORY| system memory details [Kb]
 MEMORY|                        rank 0           min           max       average
 MEMORY| MemTotal            263914148     263914148     263914156     263914150
 MEMORY| MemFree             240084804     233882780     252095068     242105180
 MEMORY| Buffers                240504         45448        366872        223329
 MEMORY| Cached                5949832       3806832      12516764       6373891
 MEMORY| Slab                  9829100       1608316      13452736       7949002
 MEMORY| SReclaimable           308180        206404        783440        309570
 MEMORY| MemLikelyFree       246583320     242973804     256273988     249011972


 *** Fundamental physical constants (SI units) ***

 *** Literature: B. J. Mohr and B. N. Taylor,
 ***             CODATA recommended values of the fundamental physical
 ***             constants: 2006, Web Version 5.1
 ***             http://physics.nist.gov/constants

 Speed of light in vacuum [m/s]                             2.99792458000000E+08
 Magnetic constant or permeability of vacuum [N/A**2]       1.25663706143592E-06
 Electric constant or permittivity of vacuum [F/m]          8.85418781762039E-12
 Planck constant (h) [J*s]                                  6.62606896000000E-34
 Planck constant (h-bar) [J*s]                              1.05457162825177E-34
 Elementary charge [C]                                      1.60217648700000E-19
 Electron mass [kg]                                         9.10938215000000E-31
 Electron g factor [ ]                                     -2.00231930436220E+00
 Proton mass [kg]                                           1.67262163700000E-27
 Fine-structure constant                                    7.29735253760000E-03
 Rydberg constant [1/m]                                     1.09737315685270E+07
 Avogadro constant [1/mol]                                  6.02214179000000E+23
 Boltzmann constant [J/K]                                   1.38065040000000E-23
 Atomic mass unit [kg]                                      1.66053878200000E-27
 Bohr radius [m]                                            5.29177208590000E-11

 *** Conversion factors ***

 [u] -> [a.u.]                                              1.82288848426455E+03
 [Angstrom] -> [Bohr] = [a.u.]                              1.88972613288564E+00
 [a.u.] = [Bohr] -> [Angstrom]                              5.29177208590000E-01
 [a.u.] -> [s]                                              2.41888432650478E-17
 [a.u.] -> [fs]                                             2.41888432650478E-02
 [a.u.] -> [J]                                              4.35974393937059E-18
 [a.u.] -> [N]                                              8.23872205491840E-08
 [a.u.] -> [K]                                              3.15774647902944E+05
 [a.u.] -> [kJ/mol]                                         2.62549961709828E+03
 [a.u.] -> [kcal/mol]                                       6.27509468713739E+02
 [a.u.] -> [Pa]                                             2.94210107994716E+13
 [a.u.] -> [bar]                                            2.94210107994716E+08
 [a.u.] -> [atm]                                            2.90362800883016E+08
 [a.u.] -> [eV]                                             2.72113838565563E+01
 [a.u.] -> [Hz]                                             6.57968392072181E+15
 [a.u.] -> [1/cm] (wave numbers)                            2.19474631370540E+05
 [a.u./Bohr**2] -> [1/cm]                                   5.14048714338585E+03
 

 CELL_TOP| Volume [angstrom^3]:                                     12889.705604
 CELL_TOP| Vector a [angstrom    31.500     0.000     0.000   |a| =    31.500000
 CELL_TOP| Vector b [angstrom   -15.750    27.280     0.000   |b| =    31.500000
 CELL_TOP| Vector c [angstrom     0.000     0.000    15.000   |c| =    15.000000
 CELL_TOP| Angle (b,c), alpha [degree]:                                90.000000
 CELL_TOP| Angle (a,c), beta  [degree]:                                90.000000
 CELL_TOP| Angle (a,b), gamma [degree]:                               120.000000
 CELL_TOP| Numerically orthorhombic:                                          NO
 CELL_TOP| Periodicity                                                        XY

 CELL_UC| Volume [angstrom^3]:                                        128.897056
 CELL_UC| Vector a [angstrom]     3.150     0.000     0.000   |a| =     3.150000
 CELL_UC| Vector b [angstrom]    -1.575     2.728     0.000   |b| =     3.150000
 CELL_UC| Vector c [angstrom]     0.000     0.000    15.000   |c| =    15.000000
 CELL_UC| Angle (b,c), alpha [degree]:                                 90.000000
 CELL_UC| Angle (a,c), beta  [degree]:                                 90.000000
 CELL_UC| Angle (a,b), gamma [degree]:                                120.000000
 CELL_UC| Numerically orthorhombic:                                           NO
 CELL_UC| Periodicity                                                         XY

 GENERATE|  Preliminary Number of Bonds generated:                             0
 GENERATE|  Achieved consistency in connectivity generation.

 CELL| Volume [angstrom^3]:                                         12889.705604
 CELL| Vector a [angstrom]:      31.500     0.000     0.000   |a| =    31.500000
 CELL| Vector b [angstrom]:     -15.750    27.280     0.000   |b| =    31.500000
 CELL| Vector c [angstrom]:       0.000     0.000    15.000   |c| =    15.000000
 CELL| Angle (b,c), alpha [degree]:                                    90.000000
 CELL| Angle (a,c), beta  [degree]:                                    90.000000
 CELL| Angle (a,b), gamma [degree]:                                   120.000000
 CELL| Numerically orthorhombic:                                              NO
 CELL| Periodicity                                                            XY

 CELL_REF| Volume [angstrom^3]:                                     12889.705604
 CELL_REF| Vector a [angstrom    31.500     0.000     0.000   |a| =    31.500000
 CELL_REF| Vector b [angstrom   -15.750    27.280     0.000   |b| =    31.500000
 CELL_REF| Vector c [angstrom     0.000     0.000    15.000   |c| =    15.000000
 CELL_REF| Angle (b,c), alpha [degree]:                                90.000000
 CELL_REF| Angle (a,c), beta  [degree]:                                90.000000
 CELL_REF| Angle (a,b), gamma [degree]:                               120.000000
 CELL_REF| Numerically orthorhombic:                                          NO
 CELL_REF| Periodicity                                                        XY

 *******************************************************************************
 *******************************************************************************
 **                                                                           **
 **     #####                         ##              ##                      **
 **    ##   ##            ##          ##              ##                      **
 **   ##     ##                       ##            ######                    **
 **   ##     ##  ##   ##  ##   #####  ##  ##   ####   ##    #####    #####    **
 **   ##     ##  ##   ##  ##  ##      ## ##   ##      ##   ##   ##  ##   ##   **
 **   ##  ## ##  ##   ##  ##  ##      ####     ###    ##   ######   ######    **
 **    ##  ###   ##   ##  ##  ##      ## ##      ##   ##   ##       ##        **
 **     #######   #####   ##   #####  ##  ##  ####    ##    #####   ##        **
 **           ##                                                    ##        **
 **                                                                           **
 **                                                ... make the atoms dance   **
 **                                                                           **
 **            Copyright (C) by CP2K developers group (2000-2023)             **
 **                      J. Chem. Phys. 152, 194103 (2020)                    **
 **                                                                           **
 *******************************************************************************

 DFT| Spin restricted Kohn-Sham (RKS) calculation                            RKS
 DFT| Multiplicity                                                             1
 DFT| Number of spin states                                                    1
 DFT| Charge                                                                   0
 DFT| Self-interaction correction (SIC)                                       NO
 DFT| Cutoffs: density                                              1.000000E-10
 DFT|          gradient                                             1.000000E-10
 DFT|          tau                                                  1.000000E-10
 DFT|          cutoff_smoothing_range                               0.000000E+00
 DFT| XC density smoothing                                                  NONE
 DFT| XC derivatives                                                          PW

 FUNCTIONAL| PADE:
 FUNCTIONAL| S. Goedecker, M. Teter and J. Hutter, Phys. Rev. B 54, 1703 (1996) 


 QS| Method:                                                                 GPW
 QS| Density plane wave grid type                        NON-SPHERICAL FULLSPACE
 QS| Number of grid levels:                                                    4
 QS| Density cutoff [a.u.]:                                                250.0
 QS| Multi grid cutoff [a.u.]: 1) grid level                               250.0
 QS|                           2) grid level                                83.3
 QS|                           3) grid level                                27.8
 QS|                           4) grid level                                 9.3
 QS| Grid level progression factor:                                          3.0
 QS| Relative density cutoff [a.u.]:                                        50.0
 QS| Interaction thresholds: eps_pgf_orb:                                1.0E-40
 QS|                         eps_filter_matrix:                          0.0E+00
 QS|                         eps_core_charge:                            1.0E-42
 QS|                         eps_rho_gspace:                             1.0E-40
 QS|                         eps_rho_rspace:                             1.0E-40
 QS|                         eps_gvg_rspace:                             1.0E-20
 QS|                         eps_ppl:                                    1.0E-02
 QS|                         eps_ppnl:                                   1.0E-22


 ATOMIC KIND INFORMATION

  1. Atomic kind: Mo                                    Number of atoms:     100

     Orbital Basis Set                                        TZVP-MOLOPT-SR-GTH

       Number of orbital shell sets:                                           1
       Number of orbital shells:                                              11
       Number of primitive Cartesian functions:                                7
       Number of Cartesian basis functions:                                   41
       Number of spherical basis functions:                                   35
       Norm type:                                                              2

       Normalised Cartesian orbitals:

                        Set   Shell   Orbital            Exponent    Coefficient

                          1       1    2s                2.540273      -1.347286
                                                         1.999996       0.728128
                                                         0.894040       0.538325
                                                         0.439257       0.138859
                                                         0.189498       0.017388
                                                         0.083802      -0.011271
                                                         0.052949      -0.000447

                          1       2    3s                2.540273       0.117404
                                                         1.999996      -0.257366
                                                         0.894040       0.160976
                                                         0.439257       0.021863
                                                         0.189498      -0.097132
                                                         0.083802      -0.024730
                                                         0.052949      -0.037323

                          1       3    4s                2.540273       0.911432
                                                         1.999996      -3.197513
                                                         0.894040       2.305463
                                                         0.439257      -1.066869
                                                         0.189498       0.281610
                                                         0.083802      -0.247438
                                                         0.052949       0.194863

                          1       4    5s                2.540273       0.190511
                                                         1.999996       0.663305
                                                         0.894040      -0.277779
                                                         0.439257       0.087883
                                                         0.189498      -0.134808
                                                         0.083802      -0.125374
                                                         0.052949       0.060527

                          1       5    3px               2.540273       3.649549
                                                         1.999996      -3.522362
                                                         0.894040      -0.796260
                                                         0.439257      -0.102391
                                                         0.189498       0.030257
                                                         0.083802       0.012043
                                                         0.052949      -0.005551
                          1       5    3py               2.540273       3.649549
                                                         1.999996      -3.522362
                                                         0.894040      -0.796260
                                                         0.439257      -0.102391
                                                         0.189498       0.030257
                                                         0.083802       0.012043
                                                         0.052949      -0.005551
                          1       5    3pz               2.540273       3.649549
                                                         1.999996      -3.522362
                                                         0.894040      -0.796260
                                                         0.439257      -0.102391
                                                         0.189498       0.030257
                                                         0.083802       0.012043
                                                         0.052949      -0.005551

                          1       6    4px               2.540273       0.130676
                                                         1.999996       0.100306
                                                         0.894040      -0.137933
                                                         0.439257      -0.038630
                                                         0.189498      -0.100430
                                                         0.083802      -0.009149
                                                         0.052949      -0.010276
                          1       6    4py               2.540273       0.130676
                                                         1.999996       0.100306
                                                         0.894040      -0.137933
                                                         0.439257      -0.038630
                                                         0.189498      -0.100430
                                                         0.083802      -0.009149
                                                         0.052949      -0.010276
                          1       6    4pz               2.540273       0.130676
                                                         1.999996       0.100306
                                                         0.894040      -0.137933
                                                         0.439257      -0.038630
                                                         0.189498      -0.100430
                                                         0.083802      -0.009149
                                                         0.052949      -0.010276

                          1       7    5px               2.540273       0.518415
                                                         1.999996       0.049290
                                                         0.894040      -0.003513
                                                         0.439257      -0.436181
                                                         0.189498      -0.029910
                                                         0.083802      -0.032193
                                                         0.052949       0.029939
                          1       7    5py               2.540273       0.518415
                                                         1.999996       0.049290
                                                         0.894040      -0.003513
                                                         0.439257      -0.436181
                                                         0.189498      -0.029910
                                                         0.083802      -0.032193
                                                         0.052949       0.029939
                          1       7    5pz               2.540273       0.518415
                                                         1.999996       0.049290
                                                         0.894040      -0.003513
                                                         0.439257      -0.436181
                                                         0.189498      -0.029910
                                                         0.083802      -0.032193
                                                         0.052949       0.029939

                          1       8    4dx2              2.540273      -1.446942
                                                         1.999996       1.845373
                                                         0.894040       0.335548
                                                         0.439257       0.133939
                                                         0.189498       0.030529
                                                         0.083802       0.002068
                                                         0.052949       0.000807
                          1       8    4dxy              2.540273      -2.506177
                                                         1.999996       3.196279
                                                         0.894040       0.581186
                                                         0.439257       0.231990
                                                         0.189498       0.052877
                                                         0.083802       0.003582
                                                         0.052949       0.001398
                          1       8    4dxz              2.540273      -2.506177
                                                         1.999996       3.196279
                                                         0.894040       0.581186
                                                         0.439257       0.231990
                                                         0.189498       0.052877
                                                         0.083802       0.003582
                                                         0.052949       0.001398
                          1       8    4dy2              2.540273      -1.446942
                                                         1.999996       1.845373
                                                         0.894040       0.335548
                                                         0.439257       0.133939
                                                         0.189498       0.030529
                                                         0.083802       0.002068
                                                         0.052949       0.000807
                          1       8    4dyz              2.540273      -2.506177
                                                         1.999996       3.196279
                                                         0.894040       0.581186
                                                         0.439257       0.231990
                                                         0.189498       0.052877
                                                         0.083802       0.003582
                                                         0.052949       0.001398
                          1       8    4dz2              2.540273      -1.446942
                                                         1.999996       1.845373
                                                         0.894040       0.335548
                                                         0.439257       0.133939
                                                         0.189498       0.030529
                                                         0.083802       0.002068
                                                         0.052949       0.000807

                          1       9    5dx2              2.540273       1.183516
                                                         1.999996      -1.496893
                                                         0.894040      -0.288851
                                                         0.439257      -0.115873
                                                         0.189498       0.057412
                                                         0.083802       0.002105
                                                         0.052949       0.004748
                          1       9    5dxy              2.540273       2.049910
                                                         1.999996      -2.592694
                                                         0.894040      -0.500305
                                                         0.439257      -0.200698
                                                         0.189498       0.099440
                                                         0.083802       0.003646
                                                         0.052949       0.008223
                          1       9    5dxz              2.540273       2.049910
                                                         1.999996      -2.592694
                                                         0.894040      -0.500305
                                                         0.439257      -0.200698
                                                         0.189498       0.099440
                                                         0.083802       0.003646
                                                         0.052949       0.008223
                          1       9    5dy2              2.540273       1.183516
                                                         1.999996      -1.496893
                                                         0.894040      -0.288851
                                                         0.439257      -0.115873
                                                         0.189498       0.057412
                                                         0.083802       0.002105
                                                         0.052949       0.004748
                          1       9    5dyz              2.540273       2.049910
                                                         1.999996      -2.592694
                                                         0.894040      -0.500305
                                                         0.439257      -0.200698
                                                         0.189498       0.099440
                                                         0.083802       0.003646
                                                         0.052949       0.008223
                          1       9    5dz2              2.540273       1.183516
                                                         1.999996      -1.496893
                                                         0.894040      -0.288851
                                                         0.439257      -0.115873
                                                         0.189498       0.057412
                                                         0.083802       0.002105
                                                         0.052949       0.004748

                          1      10    6dx2              2.540273       0.180795
                                                         1.999996       0.220695
                                                         0.894040       1.401603
                                                         0.439257      -0.205481
                                                         0.189498      -0.008824
                                                         0.083802      -0.020282
                                                         0.052949       0.004446
                          1      10    6dxy              2.540273       0.313146
                                                         1.999996       0.382255
                                                         0.894040       2.427647
                                                         0.439257      -0.355904
                                                         0.189498      -0.015284
                                                         0.083802      -0.035129
                                                         0.052949       0.007700
                          1      10    6dxz              2.540273       0.313146
                                                         1.999996       0.382255
                                                         0.894040       2.427647
                                                         0.439257      -0.355904
                                                         0.189498      -0.015284
                                                         0.083802      -0.035129
                                                         0.052949       0.007700
                          1      10    6dy2              2.540273       0.180795
                                                         1.999996       0.220695
                                                         0.894040       1.401603
                                                         0.439257      -0.205481
                                                         0.189498      -0.008824
                                                         0.083802      -0.020282
                                                         0.052949       0.004446
                          1      10    6dyz              2.540273       0.313146
                                                         1.999996       0.382255
                                                         0.894040       2.427647
                                                         0.439257      -0.355904
                                                         0.189498      -0.015284
                                                         0.083802      -0.035129
                                                         0.052949       0.007700
                          1      10    6dz2              2.540273       0.180795
                                                         1.999996       0.220695
                                                         0.894040       1.401603
                                                         0.439257      -0.205481
                                                         0.189498      -0.008824
                                                         0.083802      -0.020282
                                                         0.052949       0.004446

                          1      11    5fx3              2.540273       0.800295
                                                         1.999996      -0.726100
                                                         0.894040      -0.319551
                                                         0.439257      -0.112926
                                                         0.189498      -0.010366
                                                         0.083802      -0.000580
                                                         0.052949      -0.000060
                          1      11    5fx2y             2.540273       1.789514
                                                         1.999996      -1.623609
                                                         0.894040      -0.714538
                                                         0.439257      -0.252510
                                                         0.189498      -0.023179
                                                         0.083802      -0.001296
                                                         0.052949      -0.000134
                          1      11    5fx2z             2.540273       1.789514
                                                         1.999996      -1.623609
                                                         0.894040      -0.714538
                                                         0.439257      -0.252510
                                                         0.189498      -0.023179
                                                         0.083802      -0.001296
                                                         0.052949      -0.000134
                          1      11    5fxy2             2.540273       1.789514
                                                         1.999996      -1.623609
                                                         0.894040      -0.714538
                                                         0.439257      -0.252510
                                                         0.189498      -0.023179
                                                         0.083802      -0.001296
                                                         0.052949      -0.000134
                          1      11    5fxyz             2.540273       3.099529
                                                         1.999996      -2.812174
                                                         0.894040      -1.237616
                                                         0.439257      -0.437359
                                                         0.189498      -0.040147
                                                         0.083802      -0.002245
                                                         0.052949      -0.000233
                          1      11    5fxz2             2.540273       1.789514
                                                         1.999996      -1.623609
                                                         0.894040      -0.714538
                                                         0.439257      -0.252510
                                                         0.189498      -0.023179
                                                         0.083802      -0.001296
                                                         0.052949      -0.000134
                          1      11    5fy3              2.540273       0.800295
                                                         1.999996      -0.726100
                                                         0.894040      -0.319551
                                                         0.439257      -0.112926
                                                         0.189498      -0.010366
                                                         0.083802      -0.000580
                                                         0.052949      -0.000060
                          1      11    5fy2z             2.540273       1.789514
                                                         1.999996      -1.623609
                                                         0.894040      -0.714538
                                                         0.439257      -0.252510
                                                         0.189498      -0.023179
                                                         0.083802      -0.001296
                                                         0.052949      -0.000134
                          1      11    5fyz2             2.540273       1.789514
                                                         1.999996      -1.623609
                                                         0.894040      -0.714538
                                                         0.439257      -0.252510
                                                         0.189498      -0.023179
                                                         0.083802      -0.001296
                                                         0.052949      -0.000134
                          1      11    5fz3              2.540273       0.800295
                                                         1.999996      -0.726100
                                                         0.894040      -0.319551
                                                         0.439257      -0.112926
                                                         0.189498      -0.010366
                                                         0.083802      -0.000580
                                                         0.052949      -0.000060

     RI Auxiliary Basis Set                                 def2-SVP-RIFIT-mod-2

       Number of orbital shell sets:                                          17
       Number of orbital shells:                                              17
       Number of primitive Cartesian functions:                               17
       Number of Cartesian basis functions:                                   91
       Number of spherical basis functions:                                   69
       Norm type:                                                              2

       Normalised Cartesian orbitals:

                        Set   Shell   Orbital            Exponent    Coefficient

                          1       1    1s                0.185545       0.201487

                          2       1    1px               0.223731       0.219330
                          2       1    1py               0.223731       0.219330
                          2       1    1pz               0.223731       0.219330

                          3       1    1dx2              0.346956       0.258160
                          3       1    1dxy              0.346956       0.447147
                          3       1    1dxz              0.346956       0.447147
                          3       1    1dy2              0.346956       0.258160
                          3       1    1dyz              0.346956       0.447147
                          3       1    1dz2              0.346956       0.258160

                          4       1    1s                0.360392       0.331506

                          5       1    1fx3              0.410523       0.198593
                          5       1    1fx2y             0.410523       0.444066
                          5       1    1fx2z             0.410523       0.444066
                          5       1    1fxy2             0.410523       0.444066
                          5       1    1fxyz             0.410523       0.769146
                          5       1    1fxz2             0.410523       0.444066
                          5       1    1fy3              0.410523       0.198593
                          5       1    1fy2z             0.410523       0.444066
                          5       1    1fyz2             0.410523       0.444066
                          5       1    1fz3              0.410523       0.198593

                          6       1    1px               0.498778       0.597481
                          6       1    1py               0.498778       0.597481
                          6       1    1pz               0.498778       0.597481

                          7       1    1gx4              0.570000       0.237187
                          7       1    1gx3y             0.570000       0.627538
                          7       1    1gx3z             0.570000       0.627538
                          7       1    1gx2y2            0.570000       0.810149
                          7       1    1gx2yz            0.570000       1.403218
                          7       1    1gx2z2            0.570000       0.810149
                          7       1    1gxy3             0.570000       0.627538
                          7       1    1gxy2z            0.570000       1.403218
                          7       1    1gxyz2            0.570000       1.403218
                          7       1    1gxz3             0.570000       0.627538
                          7       1    1gy4              0.570000       0.237187
                          7       1    1gy3z             0.570000       0.627538
                          7       1    1gy2z2            0.570000       0.810149
                          7       1    1gyz3             0.570000       0.627538
                          7       1    1gz4              0.570000       0.237187

                          8       1    1dx2              0.576698       0.628158
                          8       1    1dxy              0.576698       1.088002
                          8       1    1dxz              0.576698       1.088002
                          8       1    1dy2              0.576698       0.628158
                          8       1    1dyz              0.576698       1.088002
                          8       1    1dz2              0.576698       0.628158

                          9       1    1s                0.619083       0.497418

                         10       1    1s                1.092167       0.761424

                         11       1    1fx3              1.103628       1.837832
                         11       1    1fx2y             1.103628       4.109516
                         11       1    1fx2z             1.103628       4.109516
                         11       1    1fxy2             1.103628       4.109516
                         11       1    1fxyz             1.103628       7.117891
                         11       1    1fxz2             1.103628       4.109516
                         11       1    1fy3              1.103628       1.837832
                         11       1    1fy2z             1.103628       4.109516
                         11       1    1fyz2             1.103628       4.109516
                         11       1    1fz3              1.103628       1.837832

                         12       1    1px               1.390701       2.152694
                         12       1    1py               1.390701       2.152694
                         12       1    1pz               1.390701       2.152694

                         13       1    1dx2              1.439171       3.112475
                         13       1    1dxy              1.439171       5.390965
                         13       1    1dxz              1.439171       5.390965
                         13       1    1dy2              1.439171       3.112475
                         13       1    1dyz              1.439171       5.390965
                         13       1    1dz2              1.439171       3.112475

                         14       1    1gx4              1.615953       4.164995
                         14       1    1gx3y             1.615953      11.019542
                         14       1    1gx3z             1.615953      11.019542
                         14       1    1gx2y2            1.615953      14.226167
                         14       1    1gx2yz            1.615953      24.640444
                         14       1    1gx2z2            1.615953      14.226167
                         14       1    1gxy3             1.615953      11.019542
                         14       1    1gxy2z            1.615953      24.640444
                         14       1    1gxyz2            1.615953      24.640444
                         14       1    1gxz3             1.615953      11.019542
                         14       1    1gy4              1.615953       4.164995
                         14       1    1gy3z             1.615953      11.019542
                         14       1    1gy2z2            1.615953      14.226167
                         14       1    1gyz3             1.615953      11.019542
                         14       1    1gz4              1.615953       4.164995

                         15       1    1px               2.100661       3.604831
                         15       1    1py               2.100661       3.604831
                         15       1    1pz               2.100661       3.604831

                         16       1    1s                2.197983       1.286555

                         17       1    1dx2              2.302596       7.084198
                         17       1    1dxy              2.302596      12.270190
                         17       1    1dxz              2.302596      12.270190
                         17       1    1dy2              2.302596       7.084198
                         17       1    1dyz              2.302596      12.270190
                         17       1    1dz2              2.302596       7.084198

       Atomic covalent radius [Angstrom]:                                  1.300

       Atomic van der Waals radius [Angstrom]:                             1.670

     GTH Potential information for                                  GTH-PADE-q14

       Description:                       Goedecker-Teter-Hutter pseudopotential
                                           Goedecker et al., PRB 54, 1703 (1996)
                                          Hartwigsen et al., PRB 58, 3641 (1998)
                                                      Krack, TCA 114, 145 (2005)

       Gaussian exponent of the core charge distribution:               2.704164
       Electronic configuration (s p d ...):                           3   6   5

       Parameters of the local part of the GTH pseudopotential:

                          rloc        C1          C2          C3          C4
                        0.430000   16.237452    1.496536

       Parameters of the non-local part of the GTH pseudopotential:

                   l      r(l)      h(i,j,l)

                   0    0.376255    3.362426    2.048528
                                    2.048528   -5.289276
                   1    0.361734   -0.379571    1.718923
                                    1.718923   -4.067713
                   2    0.525828   -1.543211   -0.473760
                                   -0.473760    1.074388

  2. Atomic kind: S                                     Number of atoms:     200

     Orbital Basis Set                                           TZVP-MOLOPT-GTH

       Number of orbital shell sets:                                           1
       Number of orbital shells:                                               7
       Number of primitive Cartesian functions:                                6
       Number of Cartesian basis functions:                                   18
       Number of spherical basis functions:                                   17
       Norm type:                                                              2

       Normalised Cartesian orbitals:

                        Set   Shell   Orbital            Exponent    Coefficient

                          1       1    2s                3.817591       0.157264
                                                         2.362752      -0.510082
                                                         0.861004      -0.067545
                                                         0.417525       0.341507
                                                         0.181514       0.065073
                                                         0.070571       0.000166

                          1       2    3s                3.817591      -0.204385
                                                         2.362752       0.558740
                                                         0.861004       0.301625
                                                         0.417525      -0.627222
                                                         0.181514       0.190853
                                                         0.070571       0.080605

                          1       3    4s                3.817591      -1.028748
                                                         2.362752       1.936036
                                                         0.861004       0.140522
                                                         0.417525      -0.138514
                                                         0.181514       0.081374
                                                         0.070571      -0.058475

                          1       4    3px               3.817591      -0.172386
                                                         2.362752      -0.175607
                                                         0.861004       0.224215
                                                         0.417525       0.286358
                                                         0.181514       0.049699
                                                         0.070571       0.001588
                          1       4    3py               3.817591      -0.172386
                                                         2.362752      -0.175607
                                                         0.861004       0.224215
                                                         0.417525       0.286358
                                                         0.181514       0.049699
                                                         0.070571       0.001588
                          1       4    3pz               3.817591      -0.172386
                                                         2.362752      -0.175607
                                                         0.861004       0.224215
                                                         0.417525       0.286358
                                                         0.181514       0.049699
                                                         0.070571       0.001588

                          1       5    4px               3.817591       0.011373
                                                         2.362752       0.235342
                                                         0.861004      -0.175793
                                                         0.417525      -0.223923
                                                         0.181514       0.115877
                                                         0.070571       0.033489
                          1       5    4py               3.817591       0.011373
                                                         2.362752       0.235342
                                                         0.861004      -0.175793
                                                         0.417525      -0.223923
                                                         0.181514       0.115877
                                                         0.070571       0.033489
                          1       5    4pz               3.817591       0.011373
                                                         2.362752       0.235342
                                                         0.861004      -0.175793
                                                         0.417525      -0.223923
                                                         0.181514       0.115877
                                                         0.070571       0.033489

                          1       6    5px               3.817591      -0.999910
                                                         2.362752       1.827963
                                                         0.861004      -1.566915
                                                         0.417525       0.819066
                                                         0.181514       0.069667
                                                         0.070571      -0.035715
                          1       6    5py               3.817591      -0.999910
                                                         2.362752       1.827963
                                                         0.861004      -1.566915
                                                         0.417525       0.819066
                                                         0.181514       0.069667
                                                         0.070571      -0.035715
                          1       6    5pz               3.817591      -0.999910
                                                         2.362752       1.827963
                                                         0.861004      -1.566915
                                                         0.417525       0.819066
                                                         0.181514       0.069667
                                                         0.070571      -0.035715

                          1       7    4dx2              3.817591       0.133631
                                                         2.362752       0.806297
                                                         0.861004       0.453606
                                                         0.417525       0.175089
                                                         0.181514       0.017666
                                                         0.070571      -0.000330
                          1       7    4dxy              3.817591       0.231456
                                                         2.362752       1.396548
                                                         0.861004       0.785669
                                                         0.417525       0.303263
                                                         0.181514       0.030598
                                                         0.070571      -0.000571
                          1       7    4dxz              3.817591       0.231456
                                                         2.362752       1.396548
                                                         0.861004       0.785669
                                                         0.417525       0.303263
                                                         0.181514       0.030598
                                                         0.070571      -0.000571
                          1       7    4dy2              3.817591       0.133631
                                                         2.362752       0.806297
                                                         0.861004       0.453606
                                                         0.417525       0.175089
                                                         0.181514       0.017666
                                                         0.070571      -0.000330
                          1       7    4dyz              3.817591       0.231456
                                                         2.362752       1.396548
                                                         0.861004       0.785669
                                                         0.417525       0.303263
                                                         0.181514       0.030598
                                                         0.070571      -0.000571
                          1       7    4dz2              3.817591       0.133631
                                                         2.362752       0.806297
                                                         0.861004       0.453606
                                                         0.417525       0.175089
                                                         0.181514       0.017666
                                                         0.070571      -0.000330

     RI Auxiliary Basis Set                                 def2-SVP-RIFIT-mod-1

       Number of orbital shell sets:                                          13
       Number of orbital shells:                                              13
       Number of primitive Cartesian functions:                               13
       Number of Cartesian basis functions:                                   54
       Number of spherical basis functions:                                   45
       Norm type:                                                              2

       Normalised Cartesian orbitals:

                        Set   Shell   Orbital            Exponent    Coefficient

                          1       1    1s                0.197811       0.211396

                          2       1    1dx2              0.242242       0.137672
                          2       1    1dxy              0.242242       0.238455
                          2       1    1dxz              0.242242       0.238455
                          2       1    1dy2              0.242242       0.137672
                          2       1    1dyz              0.242242       0.238455
                          2       1    1dz2              0.242242       0.137672

                          3       1    1px               0.324549       0.349172
                          3       1    1py               0.324549       0.349172
                          3       1    1pz               0.324549       0.349172

                          4       1    1s                0.389135       0.351144

                          5       1    1fx3              0.529340       0.351850
                          5       1    1fx2y             0.529340       0.786760
                          5       1    1fx2z             0.529340       0.786760
                          5       1    1fxy2             0.529340       0.786760
                          5       1    1fxyz             0.529340       1.362708
                          5       1    1fxz2             0.529340       0.786760
                          5       1    1fy3              0.529340       0.351850
                          5       1    1fy2z             0.529340       0.786760
                          5       1    1fyz2             0.529340       0.786760
                          5       1    1fz3              0.529340       0.351850

                          6       1    1dx2              0.603367       0.679871
                          6       1    1dxy              0.603367       1.177572
                          6       1    1dxz              0.603367       1.177572
                          6       1    1dy2              0.603367       0.679871
                          6       1    1dyz              0.603367       1.177572
                          6       1    1dz2              0.603367       0.679871

                          7       1    1px               0.631252       0.802035
                          7       1    1py               0.631252       0.802035
                          7       1    1pz               0.631252       0.802035

                          8       1    1s                0.936032       0.678232

                          9       1    1dx2              1.115385       1.992520
                          9       1    1dxy              1.115385       3.451146
                          9       1    1dxz              1.115385       3.451146
                          9       1    1dy2              1.115385       1.992520
                          9       1    1dyz              1.115385       3.451146
                          9       1    1dz2              1.115385       1.992520

                         10       1    1fx3              1.132321       1.947088
                         10       1    1fx2y             1.132321       4.353822
                         10       1    1fx2z             1.132321       4.353822
                         10       1    1fxy2             1.132321       4.353822
                         10       1    1fxyz             1.132321       7.541040
                         10       1    1fxz2             1.132321       4.353822
                         10       1    1fy3              1.132321       1.947088
                         10       1    1fy2z             1.132321       4.353822
                         10       1    1fyz2             1.132321       4.353822
                         10       1    1fz3              1.132321       1.947088

                         11       1    1px               1.173306       1.740620
                         11       1    1py               1.173306       1.740620
                         11       1    1pz               1.173306       1.740620

                         12       1    1s                2.064006       1.227279

                         13       1    1px               2.625789       4.764474
                         13       1    1py               2.625789       4.764474
                         13       1    1pz               2.625789       4.764474

       Atomic covalent radius [Angstrom]:                                  1.020

       Atomic van der Waals radius [Angstrom]:                             1.800

     GTH Potential information for                                   GTH-PADE-q6

       Description:                       Goedecker-Teter-Hutter pseudopotential
                                           Goedecker et al., PRB 54, 1703 (1996)
                                          Hartwigsen et al., PRB 58, 3641 (1998)
                                                      Krack, TCA 114, 145 (2005)

       Gaussian exponent of the core charge distribution:               2.834467
       Electronic configuration (s p d ...):                               2   4

       Parameters of the local part of the GTH pseudopotential:

                          rloc        C1          C2          C3          C4
                        0.420000   -6.554492

       Parameters of the non-local part of the GTH pseudopotential:

                   l      r(l)      h(i,j,l)

                   0    0.361757    7.905303   -1.731881
                                   -1.731881    4.471698
                   1    0.405285    3.866579


 MOLECULE KIND INFORMATION


 All atoms are their own molecule, skipping detailed information


 TOTAL NUMBERS AND MAXIMUM NUMBERS

  Total number of            - Atomic kinds:                                   2
                             - Atoms:                                        300
                             - Shell sets:                                   300
                             - Shells:                                      2500
                             - Primitive Cartesian functions:               1900
                             - Cartesian basis functions:                   7700
                             - Spherical basis functions:                   6900

  Maximum angular momentum of- Orbital basis functions:                        3
                             - Local part of the GTH pseudopotential:          2
                             - Non-local part of the GTH pseudopotential:      4


 MODULE QUICKSTEP: ATOMIC COORDINATES IN ANGSTROM

   Atom Kind Element         X             Y             Z       Z(eff)     Mass
      1    1 Mo   42      0.000000      1.818650      3.075000  14.0000  95.9600
      2    2 S    16      0.000000      3.637310      1.488300   6.0000  32.0650
      3    2 S    16      0.000000      3.637310      4.661700   6.0000  32.0650
      4    1 Mo   42      3.150000      1.818650      3.075000  14.0000  95.9600
      5    2 S    16      3.150000      3.637310      1.488300   6.0000  32.0650
      6    2 S    16      3.150000      3.637310      4.661700   6.0000  32.0650
      7    1 Mo   42      6.300000      1.818650      3.075000  14.0000  95.9600
      8    2 S    16      6.300000      3.637310      1.488300   6.0000  32.0650
      9    2 S    16      6.300000      3.637310      4.661700   6.0000  32.0650
     10    1 Mo   42      9.450000      1.818650      3.075000  14.0000  95.9600
     11    2 S    16      9.450000      3.637310      1.488300   6.0000  32.0650
     12    2 S    16      9.450000      3.637310      4.661700   6.0000  32.0650
     13    1 Mo   42     12.600000      1.818650      3.075000  14.0000  95.9600
     14    2 S    16     12.600000      3.637310      1.488300   6.0000  32.0650
     15    2 S    16     12.600000      3.637310      4.661700   6.0000  32.0650
     16    1 Mo   42     15.750000      1.818650      3.075000  14.0000  95.9600
     17    2 S    16     15.750000      3.637310      1.488300   6.0000  32.0650
     18    2 S    16     15.750000      3.637310      4.661700   6.0000  32.0650
     19    1 Mo   42     18.900000      1.818650      3.075000  14.0000  95.9600
     20    2 S    16     18.900000      3.637310      1.488300   6.0000  32.0650
     21    2 S    16     18.900000      3.637310      4.661700   6.0000  32.0650
     22    1 Mo   42     22.050000      1.818650      3.075000  14.0000  95.9600
     23    2 S    16     22.050000      3.637310      1.488300   6.0000  32.0650
     24    2 S    16     22.050000      3.637310      4.661700   6.0000  32.0650
     25    1 Mo   42     25.200000      1.818650      3.075000  14.0000  95.9600
     26    2 S    16     25.200000      3.637310      1.488300   6.0000  32.0650
     27    2 S    16     25.200000      3.637310      4.661700   6.0000  32.0650
     28    1 Mo   42     28.350000      1.818650      3.075000  14.0000  95.9600
     29    2 S    16     28.350000      3.637310      1.488300   6.0000  32.0650
     30    2 S    16     28.350000      3.637310      4.661700   6.0000  32.0650
     31    1 Mo   42     -1.575000      4.546630      3.075000  14.0000  95.9600
     32    2 S    16     -1.575000      6.365290      1.488300   6.0000  32.0650
     33    2 S    16     -1.575000      6.365290      4.661700   6.0000  32.0650
     34    1 Mo   42      1.575000      4.546630      3.075000  14.0000  95.9600
     35    2 S    16      1.575000      6.365290      1.488300   6.0000  32.0650
     36    2 S    16      1.575000      6.365290      4.661700   6.0000  32.0650
     37    1 Mo   42      4.725000      4.546630      3.075000  14.0000  95.9600
     38    2 S    16      4.725000      6.365290      1.488300   6.0000  32.0650
     39    2 S    16      4.725000      6.365290      4.661700   6.0000  32.0650
     40    1 Mo   42      7.875000      4.546630      3.075000  14.0000  95.9600
     41    2 S    16      7.875000      6.365290      1.488300   6.0000  32.0650
     42    2 S    16      7.875000      6.365290      4.661700   6.0000  32.0650
     43    1 Mo   42     11.025000      4.546630      3.075000  14.0000  95.9600
     44    2 S    16     11.025000      6.365290      1.488300   6.0000  32.0650
     45    2 S    16     11.025000      6.365290      4.661700   6.0000  32.0650
     46    1 Mo   42     14.175000      4.546630      3.075000  14.0000  95.9600
     47    2 S    16     14.175000      6.365290      1.488300   6.0000  32.0650
     48    2 S    16     14.175000      6.365290      4.661700   6.0000  32.0650
     49    1 Mo   42     17.325000      4.546630      3.075000  14.0000  95.9600
     50    2 S    16     17.325000      6.365290      1.488300   6.0000  32.0650
     51    2 S    16     17.325000      6.365290      4.661700   6.0000  32.0650
     52    1 Mo   42     20.475000      4.546630      3.075000  14.0000  95.9600
     53    2 S    16     20.475000      6.365290      1.488300   6.0000  32.0650
     54    2 S    16     20.475000      6.365290      4.661700   6.0000  32.0650
     55    1 Mo   42     23.625000      4.546630      3.075000  14.0000  95.9600
     56    2 S    16     23.625000      6.365290      1.488300   6.0000  32.0650
     57    2 S    16     23.625000      6.365290      4.661700   6.0000  32.0650
     58    1 Mo   42     26.775000      4.546630      3.075000  14.0000  95.9600
     59    2 S    16     26.775000      6.365290      1.488300   6.0000  32.0650
     60    2 S    16     26.775000      6.365290      4.661700   6.0000  32.0650
     61    1 Mo   42     -3.150000      7.274610      3.075000  14.0000  95.9600
     62    2 S    16     -3.150000      9.093270      1.488300   6.0000  32.0650
     63    2 S    16     -3.150000      9.093270      4.661700   6.0000  32.0650
     64    1 Mo   42      0.000000      7.274610      3.075000  14.0000  95.9600
     65    2 S    16      0.000000      9.093270      1.488300   6.0000  32.0650
     66    2 S    16      0.000000      9.093270      4.661700   6.0000  32.0650
     67    1 Mo   42      3.150000      7.274610      3.075000  14.0000  95.9600
     68    2 S    16      3.150000      9.093270      1.488300   6.0000  32.0650
     69    2 S    16      3.150000      9.093270      4.661700   6.0000  32.0650
     70    1 Mo   42      6.300000      7.274610      3.075000  14.0000  95.9600
     71    2 S    16      6.300000      9.093270      1.488300   6.0000  32.0650
     72    2 S    16      6.300000      9.093270      4.661700   6.0000  32.0650
     73    1 Mo   42      9.450000      7.274610      3.075000  14.0000  95.9600
     74    2 S    16      9.450000      9.093270      1.488300   6.0000  32.0650
     75    2 S    16      9.450000      9.093270      4.661700   6.0000  32.0650
     76    1 Mo   42     12.600000      7.274610      3.075000  14.0000  95.9600
     77    2 S    16     12.600000      9.093270      1.488300   6.0000  32.0650
     78    2 S    16     12.600000      9.093270      4.661700   6.0000  32.0650
     79    1 Mo   42     15.750000      7.274610      3.075000  14.0000  95.9600
     80    2 S    16     15.750000      9.093270      1.488300   6.0000  32.0650
     81    2 S    16     15.750000      9.093270      4.661700   6.0000  32.0650
     82    1 Mo   42     18.900000      7.274610      3.075000  14.0000  95.9600
     83    2 S    16     18.900000      9.093270      1.488300   6.0000  32.0650
     84    2 S    16     18.900000      9.093270      4.661700   6.0000  32.0650
     85    1 Mo   42     22.050000      7.274610      3.075000  14.0000  95.9600
     86    2 S    16     22.050000      9.093270      1.488300   6.0000  32.0650
     87    2 S    16     22.050000      9.093270      4.661700   6.0000  32.0650
     88    1 Mo   42     25.200000      7.274610      3.075000  14.0000  95.9600
     89    2 S    16     25.200000      9.093270      1.488300   6.0000  32.0650
     90    2 S    16     25.200000      9.093270      4.661700   6.0000  32.0650
     91    1 Mo   42     -4.725000     10.002590      3.075000  14.0000  95.9600
     92    2 S    16     -4.725000     11.821250      1.488300   6.0000  32.0650
     93    2 S    16     -4.725000     11.821250      4.661700   6.0000  32.0650
     94    1 Mo   42     -1.575000     10.002590      3.075000  14.0000  95.9600
     95    2 S    16     -1.575000     11.821250      1.488300   6.0000  32.0650
     96    2 S    16     -1.575000     11.821250      4.661700   6.0000  32.0650
     97    1 Mo   42      1.575000     10.002590      3.075000  14.0000  95.9600
     98    2 S    16      1.575000     11.821250      1.488300   6.0000  32.0650
     99    2 S    16      1.575000     11.821250      4.661700   6.0000  32.0650
    100    1 Mo   42      4.725000     10.002590      3.075000  14.0000  95.9600
    101    2 S    16      4.725000     11.821250      1.488300   6.0000  32.0650
    102    2 S    16      4.725000     11.821250      4.661700   6.0000  32.0650
    103    1 Mo   42      7.875000     10.002590      3.075000  14.0000  95.9600
    104    2 S    16      7.875000     11.821250      1.488300   6.0000  32.0650
    105    2 S    16      7.875000     11.821250      4.661700   6.0000  32.0650
    106    1 Mo   42     11.025000     10.002590      3.075000  14.0000  95.9600
    107    2 S    16     11.025000     11.821250      1.488300   6.0000  32.0650
    108    2 S    16     11.025000     11.821250      4.661700   6.0000  32.0650
    109    1 Mo   42     14.175000     10.002590      3.075000  14.0000  95.9600
    110    2 S    16     14.175000     11.821250      1.488300   6.0000  32.0650
    111    2 S    16     14.175000     11.821250      4.661700   6.0000  32.0650
    112    1 Mo   42     17.325000     10.002590      3.075000  14.0000  95.9600
    113    2 S    16     17.325000     11.821250      1.488300   6.0000  32.0650
    114    2 S    16     17.325000     11.821250      4.661700   6.0000  32.0650
    115    1 Mo   42     20.475000     10.002590      3.075000  14.0000  95.9600
    116    2 S    16     20.475000     11.821250      1.488300   6.0000  32.0650
    117    2 S    16     20.475000     11.821250      4.661700   6.0000  32.0650
    118    1 Mo   42     23.625000     10.002590      3.075000  14.0000  95.9600
    119    2 S    16     23.625000     11.821250      1.488300   6.0000  32.0650
    120    2 S    16     23.625000     11.821250      4.661700   6.0000  32.0650
    121    1 Mo   42     -6.300000     12.730570      3.075000  14.0000  95.9600
    122    2 S    16     -6.300000     14.549230      1.488300   6.0000  32.0650
    123    2 S    16     -6.300000     14.549230      4.661700   6.0000  32.0650
    124    1 Mo   42     -3.150000     12.730570      3.075000  14.0000  95.9600
    125    2 S    16     -3.150000     14.549230      1.488300   6.0000  32.0650
    126    2 S    16     -3.150000     14.549230      4.661700   6.0000  32.0650
    127    1 Mo   42      0.000000     12.730570      3.075000  14.0000  95.9600
    128    2 S    16      0.000000     14.549230      1.488300   6.0000  32.0650
    129    2 S    16      0.000000     14.549230      4.661700   6.0000  32.0650
    130    1 Mo   42      3.150000     12.730570      3.075000  14.0000  95.9600
    131    2 S    16      3.150000     14.549230      1.488300   6.0000  32.0650
    132    2 S    16      3.150000     14.549230      4.661700   6.0000  32.0650
    133    1 Mo   42      6.300000     12.730570      3.075000  14.0000  95.9600
    134    2 S    16      6.300000     14.549230      1.488300   6.0000  32.0650
    135    2 S    16      6.300000     14.549230      4.661700   6.0000  32.0650
    136    1 Mo   42      9.450000     12.730570      3.075000  14.0000  95.9600
    137    2 S    16      9.450000     14.549230      1.488300   6.0000  32.0650
    138    2 S    16      9.450000     14.549230      4.661700   6.0000  32.0650
    139    1 Mo   42     12.600000     12.730570      3.075000  14.0000  95.9600
    140    2 S    16     12.600000     14.549230      1.488300   6.0000  32.0650
    141    2 S    16     12.600000     14.549230      4.661700   6.0000  32.0650
    142    1 Mo   42     15.750000     12.730570      3.075000  14.0000  95.9600
    143    2 S    16     15.750000     14.549230      1.488300   6.0000  32.0650
    144    2 S    16     15.750000     14.549230      4.661700   6.0000  32.0650
    145    1 Mo   42     18.900000     12.730570      3.075000  14.0000  95.9600
    146    2 S    16     18.900000     14.549230      1.488300   6.0000  32.0650
    147    2 S    16     18.900000     14.549230      4.661700   6.0000  32.0650
    148    1 Mo   42     22.050000     12.730570      3.075000  14.0000  95.9600
    149    2 S    16     22.050000     14.549230      1.488300   6.0000  32.0650
    150    2 S    16     22.050000     14.549230      4.661700   6.0000  32.0650
    151    1 Mo   42     -7.875000     15.458550      3.075000  14.0000  95.9600
    152    2 S    16     -7.875000     17.277210      1.488300   6.0000  32.0650
    153    2 S    16     -7.875000     17.277210      4.661700   6.0000  32.0650
    154    1 Mo   42     -4.725000     15.458550      3.075000  14.0000  95.9600
    155    2 S    16     -4.725000     17.277210      1.488300   6.0000  32.0650
    156    2 S    16     -4.725000     17.277210      4.661700   6.0000  32.0650
    157    1 Mo   42     -1.575000     15.458550      3.075000  14.0000  95.9600
    158    2 S    16     -1.575000     17.277210      1.488300   6.0000  32.0650
    159    2 S    16     -1.575000     17.277210      4.661700   6.0000  32.0650
    160    1 Mo   42      1.575000     15.458550      3.075000  14.0000  95.9600
    161    2 S    16      1.575000     17.277210      1.488300   6.0000  32.0650
    162    2 S    16      1.575000     17.277210      4.661700   6.0000  32.0650
    163    1 Mo   42      4.725000     15.458550      3.075000  14.0000  95.9600
    164    2 S    16      4.725000     17.277210      1.488300   6.0000  32.0650
    165    2 S    16      4.725000     17.277210      4.661700   6.0000  32.0650
    166    1 Mo   42      7.875000     15.458550      3.075000  14.0000  95.9600
    167    2 S    16      7.875000     17.277210      1.488300   6.0000  32.0650
[...]
 flops max/rank                      3.412431E+09      25.1%     74.9%      0.0%
 matmuls inhomo. stacks                    154320     100.0%      0.0%      0.0%
 matmuls total                           23773200       0.6%     99.4%      0.0%
 number of processed stacks               6874100       2.2%     97.8%      0.0%
 average stack size                                     1.0       3.5       0.0
 marketing flops                   818.891981E+09
 -------------------------------------------------------------------------------
 # multiplications                              8
 max memory usage/rank             873.246720E+06
 # max total images/rank                        5
 # max 3D layers                                1
 # MPI messages exchanged                 1576960
 MPI messages size (bytes):
  total size                       276.424491E+09
  min size                           0.000000E+00
  max size                         423.584000E+03
  average size                     175.289469E+03
 MPI breakdown and total messages size (bytes):
             size <=      128              122400                        0
       128 < size <=     8192                 360                  2496960
      8192 < size <=    32768               67950               1365428640
     32768 < size <=   131072              577290              34340402400
    131072 < size <=  4194304              808960             240716160000
   4194304 < size <= 16777216                   0                        0
  16777216 < size                               0                        0
 -------------------------------------------------------------------------------

 *** WARNING in dbcsr_mm.F:290 :: Using a non-square number of MPI ranks   ***
 *** might lead to poor performance. Used ranks: 1280 Suggested: 1296 2601 ***

 -------------------------------------------------------------------------------
 -                                                                             -
 -                      DBCSR MESSAGE PASSING PERFORMANCE                      -
 -                                                                             -
 -------------------------------------------------------------------------------
 ROUTINE             CALLS      AVE VOLUME [Bytes]
 MP_Bcast              139                     12.
 MP_Allreduce          339                     23.
 MP_Alltoall        260019                4175812.
 MP_ISend             2560                  86198.
 MP_IRecv             2560                  85808.
 -------------------------------------------------------------------------------

 -------------------------------------------------------------------------------
 -                                                                             -
 -                                DBM STATISTICS                               -
 -                                                                             -
 -------------------------------------------------------------------------------
    M  x    N  x    K                                          COUNT     PERCENT
    ?  x    ?  x >999                                    62070416063       2.02%
   ??  x    ?  x  ???                                    56887283662       1.86%
    ?  x  ???  x    ?                                   477178473806      15.56%
   ??  x >999  x    ?                                    17459627003       0.57%
   ??  x  ???  x   ??                                    17359376578       0.57%
    ?  x    ?  x  ???                                   279332474254       9.11%
    ?  x   ??  x  ???                                    55993174756       1.83%
    ?  x    ?  x    ?                                  1022183409691      33.34%
   ??  x    ?  x >999                                    12388758386       0.40%
    ?  x   ??  x >999                                    12243905791       0.40%
   ??  x >999  x   ??                                     3567770475       0.12%
   ??  x  ???  x    ?                                    85084869585       2.78%
    ?  x >999  x    ?                                    97930797194       3.19%
    ?  x  ???  x   ??                                    97427810009       3.18%
   ??  x   ??  x  ???                                   320720114079      10.46%
    ?  x >999  x   ??                                    20033162220       0.65%
  ???  x   ??  x   ??                                   363229585500      11.85%
   ??  x   ??  x >999                                     2439516462       0.08%
   ??  x   ??  x   ??                                    62351227132       2.03%
 -------------------------------------------------------------------------------

 -------------------------------------------------------------------------------
 -                                                                             -
 -                                GRID STATISTICS                              -
 -                                                                             -
 -------------------------------------------------------------------------------
 LP    KERNEL             BACKEND                              COUNT     PERCENT
 5     collocate general  CPU                                4329000      22.94%
 5     integrate general  CPU                                4329000      22.94%
 4     collocate general  CPU                                2955000      15.66%
 4     integrate general  CPU                                2955000      15.66%
 6     collocate general  CPU                                1575500       8.35%
 6     integrate general  CPU                                1575500       8.35%
 0     collocate general  CPU                                 768000       4.07%
 0     integrate general  CPU                                 384000       2.03%
 -------------------------------------------------------------------------------

 MEMORY| Estimated peak process memory [MiB]                                5789

 -------------------------------------------------------------------------------
 ----                             MULTIGRID INFO                            ----
 -------------------------------------------------------------------------------
 count for grid        1:       39884540          cutoff [a.u.]          250.00
 count for grid        2:       17736780          cutoff [a.u.]           83.33
 count for grid        3:       13433540          cutoff [a.u.]           27.78
 count for grid        4:        4944240          cutoff [a.u.]            9.26
 total gridlevel count  :       75999100

 -------------------------------------------------------------------------------
 -                                                                             -
 -                         MESSAGE PASSING PERFORMANCE                         -
 -                                                                             -
 -------------------------------------------------------------------------------

 ROUTINE             CALLS      AVE VOLUME [Bytes]
 MP_Group            15908
 MP_Bcast            23749                 258580.
 MP_Allreduce        30681                  15265.
 MP_Sync             24251
 MP_Alltoall         10679                2324823.
 MP_SendRecv         19185                  22720.
 MP_ISendRecv        19185                  22720.
 MP_Wait             38853
 MP_comm_split        9293
 MP_ISend          1751474                 215910.
 MP_IRecv          1837494                 226576.
 -------------------------------------------------------------------------------


 -------------------------------------------------------------------------------
 -                                                                             -
 -                           R E F E R E N C E S                               -
 -                                                                             -
 -------------------------------------------------------------------------------
 
 CP2K version 2023.1 (Development Version), the CP2K developers group (2023).
 CP2K is freely available from https://www.cp2k.org/ .

 Kuehne,Thomas D.; Iannuzzi,Marcella; Del Ben,Mauro;
 Rybkin,Vladimir V.; Seewald,Patrick; Stein,Frederick; Laino,Teodoro;
 Khaliullin,Rustam Z.; Schuett,Ole; Schiffmann,Florian; Golze,Dorothea;
 Wilhelm,Jan; Chulkov,Sergey; Bani-Hashemian,Mohammad Hossein;
 Weber,Valery; Borstnik,Urban; Taillefumier,Mathieu;
 Jakobovits,Alice Shoshana; Lazzaro,Alfio; Pabst,Hans; Mueller,Tiziano;
 Schade,Robert; Guidon,Manuel; Andermatt,Samuel; Holmberg,Nico;
 Schenter,Gregory K.; Hehn,Anna; Bussy,Augustin; Belleflamme,Fabian;
 Tabacchi,Gloria; Gloess,Andreas; Lass,Michael; Bethune,Iain;
 Mundy,Christopher J.; Plessl,Christian; Watkins,Matt;
 VandeVondele,Joost; Krack,Matthias; Hutter,Juerg. 
 The Journal of Chemical Physics, 152 (19), (2020). 
 CP2K: An electronic structure and molecular dynamics software package -
 Quickstep: Efficient and accurate electronic structure calculations.
 https://doi.org/10.1063/5.0007045

 Wilhelm, J; Golze, D; Talirz, L; Hutter, J; Pignedoli, CA. 
 JOURNAL OF PHYSICAL CHEMISTRY LETTERS, 9, 306-312 (2018). 
 Toward GW calculations on thousands of atoms.
 https://doi.org/10.1021/acs.jpclett.7b02740

 Wilhelm, J; Hutter, J. PHYSICAL REVIEW B, 95, 235123 (2017). 
 Periodic GW calculations in the Gaussian and plane-waves scheme.
 https://doi.org/10.1103/PhysRevB.95.235123

 Wilhelm, J; Del Ben, M; Hutter, J. 
 JOURNAL OF CHEMICAL THEORY AND COMPUTATION, 12, 3623-3635 (2016). 
 GW in the Gaussian and plane waves scheme with application to linear acenes.
 https://doi.org/10.1021/acs.jctc.6b00380

 Wilhelm, J; Seewald, P; Del Ben, M; Hutter, J. 
 JOURNAL OF CHEMICAL THEORY AND COMPUTATION, 12, 5851-5859 (2016). 
 Large-Scale Cubic-Scaling Random Phase Approximation Correlation.
 https://doi.org/10.1021/acs.jctc.6b00840

 Schuett, Ole; Messmer, Peter; Hutter, Juerg; VandeVondele, Joost. 
 Electronic Structure Calculations on Graphics Processing Units, John
 Wiley & Sons, Ltd, 173-190 (2016). 
 GPU-Accelerated Sparse Matrix-Matrix Multiplication for
 Linear Scaling Density Functional Theory.
 https://doi.org/10.1002/9781118670712.ch8

 Heinecke, A; Henry, G; Hutchinson, M; Pabst, H. 
 Proceedings of Intl. Supercomputing Conference, 981-991 (2016). 
 LIBXSMM: Accelerating Small Matrix Multiplications
 by Runtime Code Generation.
 https://doi.org/10.1109/SC.2016.83

 Del Ben, M; Schuett, O; Wentz, T; Messmer, P; Hutter, J;
 VandeVondele, J. 
 COMPUTER PHYSICS COMMUNICATIONS, 187, 120-129 (2015). 
 Enabling simulation at the fifth rung of DFT: Large scale RPA
 calculations with excellent time to solution.
 https://doi.org/10.1016/j.cpc.2014.10.021

 Borstnik, U; VandeVondele, J; Weber, V; Hutter, J. 
 PARALLEL COMPUTING, 40 (5-6), 47-58 (2014). 
 Sparse matrix multiplication: The distributed block-compressed sparse
 row library.
 https://doi.org/10.1016/j.parco.2014.03.012

 Hutter, J; Iannuzzi, M; Schiffmann, F; VandeVondele, J. 
 WIREs Comput Mol Sci., 4 (1), 15-25 (2014). 
 CP2K: atomistic simulations of condensed matter systems.
 https://doi.org/10.1002/wcms.1159

 Marek, A; Blum, V; Johanni, R; Havu, V; Lang, B; Auckenthaler, T;
 Heinecke, A; Bungartz, H; Lederer, H. 
 Journal of Physics: Condensed Matter, 26 (21), (2014). 
 The ELPA library: scalable parallel eigenvalue solutions for
 electronic structure
 theory and computational science.
 https://doi.org/10.1088/0953-8984/26/21/213201

 Del Ben, M; Hutter, J; VandeVondele, J. 
 JOURNAL OF CHEMICAL THEORY AND COMPUTATION, 9 (6), 2654-2671 (2013). 
 Electron Correlation in the Condensed Phase from a Resolution of
 Identity Approach Based on the Gaussian and Plane Waves Scheme.
 https://doi.org/10.1021/ct4002202

 Del Ben, M; Hutter, J; VandeVondele, J. 
 JOURNAL OF CHEMICAL THEORY AND COMPUTATION, 8 (11), 4177-4188 (2012). 
 Second-Order Moller-Plesset Perturbation Theory in the Condensed Phase:
 An Efficient and Massively Parallel Gaussian and Plane Waves Approach.
 https://doi.org/10.1021/ct300531w

 VandeVondele, J; Hutter, J. 
 JOURNAL OF CHEMICAL PHYSICS, 127 (11), 114105 (2007). 
 Gaussian basis sets for accurate calculations on molecular systems in
 gas and condensed phases.
 https://doi.org/10.1063/1.2770708

 Krack, M. 
 THEORETICAL CHEMISTRY ACCOUNTS, 114 (1-3), 145-152 (2005). 
 Pseudopotentials for H to Kr optimized for gradient-corrected
 exchange-correlation functionals.
 https://doi.org/10.1007/s00214-005-0655-y

 VandeVondele, J; Krack, M; Mohamed, F; Parrinello, M; Chassaing, T;
 Hutter, J. COMPUTER PHYSICS COMMUNICATIONS, 167 (2), 103-128 (2005). 
 QUICKSTEP: Fast and accurate density functional calculations using a
 mixed Gaussian and plane waves approach.
 https://doi.org/10.1016/j.cpc.2004.12.014

 Frigo, M; Johnson, SG. 
 PROCEEDINGS OF THE IEEE, 93 (2), 216-231 (2005). 
 The design and implementation of FFTW3.
 https://doi.org/10.1109/JPROC.2004.840301

 Hartwigsen, C; Goedecker, S; Hutter, J. 
 PHYSICAL REVIEW B, 58 (7), 3641-3662 (1998). 
 Relativistic separable dual-space Gaussian pseudopotentials from H to Rn.
 https://doi.org/10.1103/PhysRevB.58.3641

 Lippert, G; Hutter, J; Parrinello, M. 
 MOLECULAR PHYSICS, 92 (3), 477-487 (1997). 
 A hybrid Gaussian and plane wave density functional scheme.
 https://doi.org/10.1080/002689797170220

 Goedecker, S; Teter, M; Hutter, J. 
 PHYSICAL REVIEW B, 54 (3), 1703-1710 (1996). 
 Separable dual-space Gaussian pseudopotentials.
 https://doi.org/10.1103/PhysRevB.54.1703


 -------------------------------------------------------------------------------
 -                                                                             -
 -                                T I M I N G                                  -
 -                                                                             -
 -------------------------------------------------------------------------------
 SUBROUTINE                       CALLS  ASD         SELF TIME        TOTAL TIME
                                MAXIMUM       AVERAGE  MAXIMUM  AVERAGE  MAXIMUM
 CP2K                                 1  1.0     0.04     0.29 22181.85 22181.99
 qs_energies                          1  2.0     0.00     0.04 22180.80 22180.93
 mp2_main                             1  3.0     0.00     0.01 22168.15 22168.29
 mp2_gpw_main                         1  4.0     0.00     0.01 22166.61 22166.75
 rpa_ri_compute_en                    1  5.0     0.00     0.00 21549.18 21549.32
 rpa_num_int                          1  6.0     0.00     0.05 21227.09 21227.22
 dbt_total                         5507  9.8     0.04     0.05 10348.80 10348.87
 dbt_contract                      2205 11.0     0.13     0.16  9298.05  9305.18
 rpa_num_int_RPA_matrix_operati      30  7.0     0.00     0.00  9274.08  9274.18
 invert_eps_compute_W_and_Erpa_      30  8.0     0.01     0.01  9274.06  9274.15
 dbt_tas_total                     3277 13.4    46.93    58.40  9142.47  9142.53
 dbt_tas_multiply                  2856 12.9     0.01     0.01  9133.77  9133.83
 compute_Q_kp_RPA                   780  9.0     0.43     1.31  7387.48  7388.76
 compute_QP_energies                  1  7.0     0.00     0.01  7090.38  7090.42
 compute_self_energy_cubic_gw_k       1  8.0     0.15     0.18  7090.24  7090.30
 cp_cfm_power                       832  9.9     0.72     1.19  6705.01  6705.63
 cp_cfm_heevd                       961 10.6  6383.57  6386.93  6383.57  6386.93
 dbt_tas_dbm                       2856 14.9     0.01     0.01  6205.68  6205.72
 dbm_multiply                      2856 16.9  4552.67  5453.71  4552.67  5453.71
 compute_mat_P_omega                  1  7.0     0.00     0.00  4858.96  4859.00
 compute_mat_P_omega_contract        30  8.0    10.33    11.50  4825.97  4826.00
 parallel_gemm_cfm                11914 10.2     0.03     0.05  3847.75  3859.35
 parallel_gemm_cfm_cosma          11914 11.2  3847.71  3859.30  3847.71  3859.30
 dbt_tas_mm_2                       676 15.0     0.00     0.00  3364.50  3364.52
 contract_to_self_energy            558  9.0     0.01     0.01  2937.96  2939.33
 tensor_operation_3c_W              279  9.0     0.00     0.00  2625.63  2626.63
 mp_sync                          24251 12.5  1976.75  2505.20  1976.75  2505.20
 compute_mat_P_omega_calc_P_t       270  9.0     0.00     0.00  2104.49  2104.50
 mp_waitall_2                     14083 16.8  1819.90  2052.83  1819.90  2052.83
 dbt_tas_mm_3N                      522 16.5     0.00     0.00  1362.08  1545.42
 compute_Wc_real_space_tau_GW       780  9.0     0.01     0.01  1528.47  1530.12
 trafo_to_mo_and_kpoints             61  9.0     0.87     0.95  1472.26  1472.27
 compute_mat_P_omega_calc_M_occ     270  9.0    10.34    11.55  1415.44  1415.44
 mp_isend_dv                    1366844 16.6   233.72  1332.72   233.72  1332.72
 dbt_tas_communicate_buffer        5225 17.3     0.80     1.20  1290.61  1324.41
 dbt_tas_replicate                 2482 15.0    45.62   112.13  1293.48  1323.86
 dbt_tas_replicate_communicate_    2001 16.2     0.18     0.28  1215.49  1247.07
 compute_Wc_real_space_tau_GW_3     780 10.0     0.00     0.01   992.29   999.60
 dbt_copy                          2715 10.8     0.13     0.15   889.59   933.17
 dbm_redistribute                  6282 15.8   871.95   928.15   871.95   928.15
 dbt_reshape                       2675 11.8    91.70   100.72   883.60   927.20
 dbt_communicate_buffer            2675 12.8     0.53     0.61   765.34   799.26
 convert_to_new_pgrid              8568 14.9    80.52   117.53   669.62   693.15
 compute_mat_P_omega_calc_M_vir     270  9.0     0.00     0.00   672.30   672.31
 mp2_ri_gpw_compute_in                1  5.0     0.00     0.03   617.40   617.41
 get_2c_integrals                     1  6.0     0.00     0.00   568.13   568.14
 dbt_tas_mm_3T                     1116 16.5     0.00     0.00   473.51   541.20
 compute_Wc_real_space_tau_GW_2     780 10.0     0.05     0.06   509.47   513.56
 dbt_tas_mm_1N                      542 15.0     0.00     0.00   368.35   503.44
 cp_cfm_cholesky_invert             780 11.0   500.01   502.39   500.01   502.39
 inversion_of_M_and_mult_with_c       1  7.0     0.00     0.00   451.60   451.61
 get_bandstruc_and_k_dependent_       1  6.0     0.00     0.00   322.09   322.09
 create_kp_and_calc_kp_orbitals       3  7.0     0.00     0.01   322.09   322.09
 cp_cfm_geeig                       129  8.0     0.00     0.00   299.12   299.48
 real_space_to_kpoint_transform      97  9.9     5.47     5.84   273.76   273.83
 cp_cfm_cholesky_decompose          909  9.9   268.11   268.20   268.11   268.20
 dbcsr_new_transposed             19774 10.9     1.16     1.22   266.82   267.62
 mp_alltoall_d11v                120061 13.1   230.68   266.61   230.68   266.61
 dbcsr_redistribute               19768 11.9     3.28     4.17   265.47   266.39
 cholesky_decomp_Q                  780  9.0     0.61     0.92   262.36   263.32
 compute_mat_P_omega_copy_M_occ     270  9.0     0.00     0.00   229.37   229.62
 -------------------------------------------------------------------------------

 The number of warnings for this run is : 2
 
 -------------------------------------------------------------------------------
  **** **** ******  **  PROGRAM ENDED AT                 2023-06-18 06:59:11.312
 ***** ** ***  *** **   PROGRAM RAN ON                                  n2cn0201
 **    ****   ******    PROGRAM RAN BY                                  eprop2d1
 ***** **    ** ** **   PROGRAM PROCESS ID                                 75083
  **** **  *******  **  PROGRAM STOPPED IN /scratch/hpc-prf-eprop2d/eprop2d1_Jan
                                           /02_MoS2_MoSe2_WS2_WSe2/1_MoS2/10x10_
                                           PBE/04_reg_RI_1e-2_TZVP_standard_RI/2
                                           _30_minimax/2_regularization_1.0E-6
