 DBCSR| CPU Multiplication driver                                           XSMM (U)
 DBCSR| Multrec recursion limit                                              512 (U)
 DBCSR| Multiplication stack size                                           1000 (D)
 DBCSR| Maximum elements for images                                    UNLIMITED (U)
 DBCSR| Multiplicative factor virtual images                                   1 (U)
 DBCSR| Use multiplication densification                                       T (D)
 DBCSR| Multiplication size stacks                                             3 (U)
 DBCSR| Number of 3D layers                                               SINGLE (U)
 DBCSR| Use RMA algorithm                                                      F (U)
 DBCSR| Use Communication thread                                               T (U)
 DBCSR| Communication thread load                                             75 (D)
 DBCSR| MPI: My process id                                                     0
 DBCSR| MPI: Number of processes                                             396
 DBCSR| OMP: Current number of threads                                         4
 DBCSR| OMP: Max number of threads                                             4
 DBCSR| Split modifier for TAS multiplication algorithm                  1.0E+00 (U)


  **** **** ******  **  PROGRAM STARTED AT               2023-03-04 08:22:34.441
 ***** ** ***  *** **   PROGRAM STARTED ON                      f0717.nhr.fau.de
 **    ****   ******    PROGRAM STARTED BY                              b165da10
 ***** **    ** ** **   PROGRAM PROCESS ID                                915372
  **** **  *******  **  PROGRAM STARTED IN /home/atuin/b165da/b165da10/12_MoSe2/
                                           09x09/4_RI-3_RI_reg_1E-2

 CP2K| version string:                 CP2K version 2023.1 (Development Version)
 CP2K| source code revision number:                                  git:383ec4c
 CP2K| cp2kflags: omp libint fftw3 libxc parallel mpi_f08 scalapack cosma xsmm p
 CP2K|            lumed2 spglib mkl libvdwxc
 CP2K| is freely available from                            https://www.cp2k.org/
 CP2K| Program compiled at                           Fri Feb 3 21:19:19 CET 2023
 CP2K| Program compiled on                                     fritz3.nhr.fau.de
 CP2K| Program compiled for                                                local
 CP2K| Data directory path    /home/atuin/b165da/b165da10/01_CP2K_compilations/0
 CP2K| Input file name                                               GW_WSe2.inp
 
 GLOBAL| Force Environment number                                              1
 GLOBAL| Basis set file name                                        BASIS_MOLOPT
 GLOBAL| Potential file name                                      GTH_POTENTIALS
 GLOBAL| MM Potential file name                                     MM_POTENTIAL
 GLOBAL| Coordinate file name                                      __STD_INPUT__
 GLOBAL| Method name                                                        CP2K
 GLOBAL| Project name                                                       MoS2
 GLOBAL| Run type                                                         ENERGY
 GLOBAL| FFT library                                                       FFTW3
 GLOBAL| Diagonalization library                                       ScaLAPACK
 GLOBAL| DGEMM library                                                      BLAS
 GLOBAL| Orthonormality check for eigenvectors                          DISABLED
 GLOBAL| Matrix multiplication library                                     COSMA
 GLOBAL| All-to-all communication in single precision                          F
 GLOBAL| FFTs using library dependent lengths                                  F
 GLOBAL| Grid backend                                                       AUTO
 GLOBAL| Global print level                                               MEDIUM
 GLOBAL| MPI I/O enabled                                                       T
 GLOBAL| Total number of message passing processes                           396
 GLOBAL| Number of threads for this process                                    4
 GLOBAL| This output is from process                                           0
 GLOBAL| Stack size for threads created by OpenMP (OMP_STACKSIZE)        default
 GLOBAL| CPU model name            Intel(R) Xeon(R) Platinum 8360Y CPU @ 2.40GHz
 GLOBAL| CPUID                                                              1003

 MEMORY|                        rank 0           min           max       average
 MEMORY| MemTotal            263795712     263795712     263797860     263796010
 MEMORY| MemFree             251570668     248365552     254983748     251970639
 MEMORY| Buffers                  2144          1396          2632          2168
 MEMORY| Cached                2836260       2772968       2869316       2829431
 MEMORY| Slab                  3926116        915016       7040448       3695098
 MEMORY| SReclaimable           131644        104724        134604        123320
 MEMORY| MemLikelyFree       254540716     251345388     257888844     254925560


 *** Fundamental physical constants (SI units) ***

 *** Literature: B. J. Mohr and B. N. Taylor,
 ***             CODATA recommended values of the fundamental physical
 ***             constants: 2006, Web Version 5.1
 ***             http://physics.nist.gov/constants

 Magnetic constant or permeability of vacuum [N/A**2]       1.25663706143592E-06
 Electric constant or permittivity of vacuum [F/m]          8.85418781762039E-12
 Planck constant (h-bar) [J*s]                              1.05457162825177E-34
 Electron g factor [ ]                                     -2.00231930436220E+00
 Fine-structure constant                                    7.29735253760000E-03
 Rydberg constant [1/m]                                     1.09737315685270E+07
 Bohr radius [m]                                            5.29177208590000E-11

 *** Conversion factors ***

 [u] -> [a.u.]                                              1.82288848426455E+03
 [Angstrom] -> [Bohr] = [a.u.]                              1.88972613288564E+00
 [a.u.] = [Bohr] -> [Angstrom]                              5.29177208590000E-01
 [a.u.] -> [s]                                              2.41888432650478E-17
 [a.u.] -> [fs]                                             2.41888432650478E-02
 [a.u.] -> [J]                                              4.35974393937059E-18
 [a.u.] -> [N]                                              8.23872205491840E-08
 [a.u.] -> [K]                                              3.15774647902944E+05
 [a.u.] -> [kJ/mol]                                         2.62549961709828E+03
 [a.u.] -> [kcal/mol]                                       6.27509468713739E+02
 [a.u.] -> [Pa]                                             2.94210107994716E+13
 [a.u.] -> [bar]                                            2.94210107994716E+08
 [a.u.] -> [atm]                                            2.90362800883016E+08
 [a.u.] -> [eV]                                             2.72113838565563E+01
 [a.u.] -> [Hz]                                             6.57968392072181E+15
 [a.u.] -> [1/cm] (wave numbers)                            2.19474631370540E+05
 [a.u./Bohr**2] -> [1/cm]                                   5.14048714338585E+03
 
 GENERATE|  Preliminary Number of Bonds generated:                             0
 GENERATE|  Achieved consistency in connectivity generation.

 CELL| Volume [angstrom^3]:                                         11597.175000
 CELL| Vector a [angstrom]:      29.880     0.000     0.000   |a| =    29.880000
 CELL| Vector b [angstrom]:     -14.940    25.875     0.000   |b| =    29.878407
 CELL| Angle (a,b), gamma [degree]:                                   120.001763
 CELL| Numerically orthorhombic:                                              NO
 CELL| Periodicity                                                            XY

 CELL_REF| Volume [angstrom^3]:                                     11597.175000
 CELL_REF| Vector a [angstrom    29.880     0.000     0.000   |a| =    29.880000
 CELL_REF| Vector b [angstrom   -14.940    25.875     0.000   |b| =    29.878407
 CELL_REF| Angle (a,b), gamma [degree]:                               120.001763
 CELL_REF| Numerically orthorhombic:                                          NO
 CELL_REF| Periodicity                                                        XY

 *******************************************************************************
 *******************************************************************************
 **                                                                           **
 **     #####                         ##              ##                      **
 **    ##   ##            ##          ##              ##                      **
 **   ##     ##                       ##            ######                    **
 **   ##     ##  ##   ##  ##   #####  ##  ##   ####   ##    #####    #####    **
 **   ##     ##  ##   ##  ##  ##      ## ##   ##      ##   ##   ##  ##   ##   **
 **   ##  ## ##  ##   ##  ##  ##      ####     ###    ##   ######   ######    **
 **    ##  ###   ##   ##  ##  ##      ## ##      ##   ##   ##       ##        **
 **     #######   #####   ##   #####  ##  ##  ####    ##    #####   ##        **
 **           ##                                                    ##        **
 **                                                                           **
 **                                                ... make the atoms dance   **
 **                                                                           **
 **            Copyright (C) by CP2K developers group (2000-2023)             **
 **                      J. Chem. Phys. 152, 194103 (2020)                    **
 **                                                                           **
 *******************************************************************************
  MB
  MB
 B
 B

 DFT| Spin restricted Kohn-Sham (RKS) calculation                            RKS
 DFT| Multiplicity                                                             1
 DFT| Number of spin states                                                    1
 DFT| Charge                                                                   0
 DFT| Self-interaction correction (SIC)                                       NO
 DFT| XC density smoothing                                                  NONE
 DFT| XC derivatives                                                          PW

 FUNCTIONAL| PADE:
 FUNCTIONAL| S. Goedecker, M. Teter and J. Hutter, Phys. Rev. B 54, 1703 (1996) 


 QS| Method:                                                                 GPW
 QS| Density plane wave grid type                        NON-SPHERICAL FULLSPACE
 QS| Number of grid levels:                                                    4
 QS| Density cutoff [a.u.]:                                                250.0
 QS| Multi grid cutoff [a.u.]: 1) grid level                               250.0
 QS|                           2) grid level                                83.3
 QS|                           3) grid level                                27.8
 QS|                           4) grid level                                 9.3
 QS| Grid level progression factor:                                          3.0
 QS| Relative density cutoff [a.u.]:                                        50.0
 QS| Interaction thresholds: eps_pgf_orb:                                1.0E-40
 QS|                         eps_filter_matrix:                          0.0E+00
 QS|                         eps_core_charge:                            1.0E-42
 QS|                         eps_rho_gspace:                             1.0E-40
 QS|                         eps_rho_rspace:                             1.0E-40
 QS|                         eps_gvg_rspace:                             1.0E-20
 QS|                         eps_ppl:                                    1.0E-02
 QS|                         eps_ppnl:                                   1.0E-22


 ATOMIC KIND INFORMATION

  1. Atomic kind: Mo                                    Number of atoms:      81

     Orbital Basis Set                              TZVP-MOLOPT-SR-GTH_robust_12

       Number of orbital shell sets:                                           1
       Number of orbital shells:                                              11
       Number of primitive Cartesian functions:                                7
       Number of Cartesian basis functions:                                   41
       Number of spherical basis functions:                                   35
       Norm type:                                                              2

       Normalised Cartesian orbitals:

                        Set   Shell   Orbital            Exponent    Coefficient

                          1       1    2s                2.540273      -1.345673
                                                         1.999996       0.727257
                                                         0.894040       0.537681
                                                         0.439257       0.138693
                                                         0.189498       0.017367
                                                         0.110000       0.032945

                          1       2    3s                2.540273       0.114163
                                                         1.999996      -0.250260
                                                         0.894040       0.156531
                                                         0.439257       0.021259
                                                         0.189498      -0.094450
                                                         0.110000       0.527481

                          1       3    4s                2.540273       0.776470
                                                         1.999996      -2.724036
                                                         0.894040       1.964078
                                                         0.439257      -0.908890
                                                         0.189498       0.239910
                                                         0.110000      -1.638373

                          1       4    5s                2.540273       0.193805
                                                         1.999996       0.674775
                                                         0.894040      -0.282582
                                                         0.439257       0.089402
                                                         0.189498      -0.137139
                                                         0.110000      -0.488537

                          1       5    3px               2.540273       3.691791
                                                         1.999996      -3.563133
                                                         0.894040      -0.805476
                                                         0.439257      -0.103576
                                                         0.189498       0.030607
                                                         0.110000       0.070996
                          1       5    3py               2.540273       3.691791
                                                         1.999996      -3.563133
                                                         0.894040      -0.805476
                                                         0.439257      -0.103576
                                                         0.189498       0.030607
                                                         0.110000       0.070996
                          1       5    3pz               2.540273       3.691791
                                                         1.999996      -3.563133
                                                         0.894040      -0.805476
                                                         0.439257      -0.103576
                                                         0.189498       0.030607
                                                         0.110000       0.070996

                          1       6    4px               2.540273       0.129010
                                                         1.999996       0.099026
                                                         0.894040      -0.136173
                                                         0.439257      -0.038137
                                                         0.189498      -0.099149
                                                         0.110000       0.214113
                          1       6    4py               2.540273       0.129010
                                                         1.999996       0.099026
                                                         0.894040      -0.136173
                                                         0.439257      -0.038137
                                                         0.189498      -0.099149
                                                         0.110000       0.214113
                          1       6    4pz               2.540273       0.129010
                                                         1.999996       0.099026
                                                         0.894040      -0.136173
                                                         0.439257      -0.038137
                                                         0.189498      -0.099149
                                                         0.110000       0.214113

                          1       7    5px               2.540273       0.471976
                                                         1.999996       0.044875
                                                         0.894040      -0.003198
                                                         0.439257      -0.397109
                                                         0.189498      -0.027230
                                                         0.110000      -0.427107
                          1       7    5py               2.540273       0.471976
                                                         1.999996       0.044875
                                                         0.894040      -0.003198
                                                         0.439257      -0.397109
                                                         0.189498      -0.027230
                                                         0.110000      -0.427107
                          1       7    5pz               2.540273       0.471976
                                                         1.999996       0.044875
                                                         0.894040      -0.003198
                                                         0.439257      -0.397109
                                                         0.189498      -0.027230
                                                         0.110000      -0.427107

                          1       8    4dx2              2.540273      -1.452114
                                                         1.999996       1.851969
                                                         0.894040       0.336748
                                                         0.439257       0.134418
                                                         0.189498       0.030638
                                                         0.110000      -0.028347
                          1       8    4dxy              2.540273      -2.515135
                                                         1.999996       3.207704
                                                         0.894040       0.583264
                                                         0.439257       0.232819
                                                         0.189498       0.053066
                                                         0.110000      -0.049099
                          1       8    4dxz              2.540273      -2.515135
                                                         1.999996       3.207704
                                                         0.894040       0.583264
                                                         0.439257       0.232819
                                                         0.189498       0.053066
                                                         0.110000      -0.049099
                          1       8    4dy2              2.540273      -1.452114
                                                         1.999996       1.851969
                                                         0.894040       0.336748
                                                         0.439257       0.134418
                                                         0.189498       0.030638
                                                         0.110000      -0.028347
                          1       8    4dyz              2.540273      -2.515135
                                                         1.999996       3.207704
                                                         0.894040       0.583264
                                                         0.439257       0.232819
                                                         0.189498       0.053066
                                                         0.110000      -0.049099
                          1       8    4dz2              2.540273      -1.452114
                                                         1.999996       1.851969
                                                         0.894040       0.336748
                                                         0.439257       0.134418
                                                         0.189498       0.030638
                                                         0.110000      -0.028347

                          1       9    5dx2              2.540273       1.091564
                                                         1.999996      -1.380594
                                                         0.894040      -0.266409
                                                         0.439257      -0.106871
                                                         0.189498       0.052951
                                                         0.110000      -0.123814
                          1       9    5dxy              2.540273       1.890645
                                                         1.999996      -2.391258
                                                         0.894040      -0.461434
                                                         0.439257      -0.185105
                                                         0.189498       0.091714
                                                         0.110000      -0.214453
                          1       9    5dxz              2.540273       1.890645
                                                         1.999996      -2.391258
                                                         0.894040      -0.461434
                                                         0.439257      -0.185105
                                                         0.189498       0.091714
                                                         0.110000      -0.214453
                          1       9    5dy2              2.540273       1.091564
                                                         1.999996      -1.380594
                                                         0.894040      -0.266409
                                                         0.439257      -0.106871
                                                         0.189498       0.052951
                                                         0.110000      -0.123814
                          1       9    5dyz              2.540273       1.890645
                                                         1.999996      -2.391258
                                                         0.894040      -0.461434
                                                         0.439257      -0.185105
                                                         0.189498       0.091714
                                                         0.110000      -0.214453
                          1       9    5dz2              2.540273       1.091564
                                                         1.999996      -1.380594
                                                         0.894040      -0.266409
                                                         0.439257      -0.106871
                                                         0.189498       0.052951
                                                         0.110000      -0.123814

                          1      10    6dx2              2.540273       0.186639
                                                         1.999996       0.227829
                                                         0.894040       1.446911
                                                         0.439257      -0.212124
                                                         0.189498      -0.009110
                                                         0.110000      -0.056981
                          1      10    6dxy              2.540273       0.323269
                                                         1.999996       0.394612
                                                         0.894040       2.506124
                                                         0.439257      -0.367409
                                                         0.189498      -0.015779
                                                         0.110000      -0.098694
                          1      10    6dxz              2.540273       0.323269
                                                         1.999996       0.394612
                                                         0.894040       2.506124
                                                         0.439257      -0.367409
                                                         0.189498      -0.015779
                                                         0.110000      -0.098694
                          1      10    6dy2              2.540273       0.186639
                                                         1.999996       0.227829
                                                         0.894040       1.446911
                                                         0.439257      -0.212124
                                                         0.189498      -0.009110
                                                         0.110000      -0.056981
                          1      10    6dyz              2.540273       0.323269
                                                         1.999996       0.394612
                                                         0.894040       2.506124
                                                         0.439257      -0.367409
                                                         0.189498      -0.015779
                                                         0.110000      -0.098694
                          1      10    6dz2              2.540273       0.186639
                                                         1.999996       0.227829
                                                         0.894040       1.446911
                                                         0.439257      -0.212124
                                                         0.189498      -0.009110
                                                         0.110000      -0.056981

                          1      11    5fx3              2.540273       0.802599
                                                         1.999996      -0.728191
                                                         0.894040      -0.320471
                                                         0.439257      -0.113251
                                                         0.189498      -0.010396
                                                         0.110000       0.004443
                          1      11    5fx2y             2.540273       1.794666
                                                         1.999996      -1.628284
                                                         0.894040      -0.716595
                                                         0.439257      -0.253237
                                                         0.189498      -0.023245
                                                         0.110000       0.009935
                          1      11    5fx2z             2.540273       1.794666
                                                         1.999996      -1.628284
                                                         0.894040      -0.716595
                                                         0.439257      -0.253237
                                                         0.189498      -0.023245
                                                         0.110000       0.009935
                          1      11    5fxy2             2.540273       1.794666
                                                         1.999996      -1.628284
                                                         0.894040      -0.716595
                                                         0.439257      -0.253237
                                                         0.189498      -0.023245
                                                         0.110000       0.009935
                          1      11    5fxyz             2.540273       3.108453
                                                         1.999996      -2.820270
                                                         0.894040      -1.241179
                                                         0.439257      -0.438619
                                                         0.189498      -0.040262
                                                         0.110000       0.017207
                          1      11    5fxz2             2.540273       1.794666
                                                         1.999996      -1.628284
                                                         0.894040      -0.716595
                                                         0.439257      -0.253237
                                                         0.189498      -0.023245
                                                         0.110000       0.009935
                          1      11    5fy3              2.540273       0.802599
                                                         1.999996      -0.728191
                                                         0.894040      -0.320471
                                                         0.439257      -0.113251
                                                         0.189498      -0.010396
                                                         0.110000       0.004443
                          1      11    5fy2z             2.540273       1.794666
                                                         1.999996      -1.628284
                                                         0.894040      -0.716595
                                                         0.439257      -0.253237
                                                         0.189498      -0.023245
                                                         0.110000       0.009935
                          1      11    5fyz2             2.540273       1.794666
                                                         1.999996      -1.628284
                                                         0.894040      -0.716595
                                                         0.439257      -0.253237
                                                         0.189498      -0.023245
                                                         0.110000       0.009935
                          1      11    5fz3              2.540273       0.802599
                                                         1.999996      -0.728191
                                                         0.894040      -0.320471
                                                         0.439257      -0.113251
                                                         0.189498      -0.010396
                                                         0.110000       0.004443

     RI Auxiliary Basis Set                                 def2-SVP-RIFIT-mod-2

       Number of orbital shell sets:                                          17
       Number of orbital shells:                                              17
       Number of primitive Cartesian functions:                               17
       Number of Cartesian basis functions:                                   91
       Number of spherical basis functions:                                   69
       Norm type:                                                              2

       Normalised Cartesian orbitals:

                        Set   Shell   Orbital            Exponent    Coefficient

                          1       1    1s                0.185545       0.201487

                          2       1    1px               0.223731       0.219330
                          2       1    1py               0.223731       0.219330
                          2       1    1pz               0.223731       0.219330

                          3       1    1dx2              0.346956       0.258160
                          3       1    1dxy              0.346956       0.447147
                          3       1    1dxz              0.346956       0.447147
                          3       1    1dy2              0.346956       0.258160
                          3       1    1dyz              0.346956       0.447147
                          3       1    1dz2              0.346956       0.258160

                          4       1    1s                0.360392       0.331506

                          5       1    1fx3              0.410523       0.198593
                          5       1    1fx2y             0.410523       0.444066
                          5       1    1fx2z             0.410523       0.444066
                          5       1    1fxy2             0.410523       0.444066
                          5       1    1fxyz             0.410523       0.769146
                          5       1    1fxz2             0.410523       0.444066
                          5       1    1fy3              0.410523       0.198593
                          5       1    1fy2z             0.410523       0.444066
                          5       1    1fyz2             0.410523       0.444066
                          5       1    1fz3              0.410523       0.198593

                          6       1    1px               0.498778       0.597481
                          6       1    1py               0.498778       0.597481
                          6       1    1pz               0.498778       0.597481

                          7       1    1gx4              0.570000       0.237187
                          7       1    1gx3y             0.570000       0.627538
                          7       1    1gx3z             0.570000       0.627538
                          7       1    1gx2y2            0.570000       0.810149
                          7       1    1gx2yz            0.570000       1.403218
                          7       1    1gx2z2            0.570000       0.810149
                          7       1    1gxy3             0.570000       0.627538
                          7       1    1gxy2z            0.570000       1.403218
                          7       1    1gxyz2            0.570000       1.403218
                          7       1    1gxz3             0.570000       0.627538
                          7       1    1gy4              0.570000       0.237187
                          7       1    1gy3z             0.570000       0.627538
                          7       1    1gy2z2            0.570000       0.810149
                          7       1    1gyz3             0.570000       0.627538
                          7       1    1gz4              0.570000       0.237187

                          8       1    1dx2              0.576698       0.628158
                          8       1    1dxy              0.576698       1.088002
                          8       1    1dxz              0.576698       1.088002
                          8       1    1dy2              0.576698       0.628158
                          8       1    1dyz              0.576698       1.088002
                          8       1    1dz2              0.576698       0.628158

                          9       1    1s                0.619083       0.497418

                         10       1    1s                1.092167       0.761424

                         11       1    1fx3              1.103628       1.837832
                         11       1    1fx2y             1.103628       4.109516
                         11       1    1fx2z             1.103628       4.109516
                         11       1    1fxy2             1.103628       4.109516
                         11       1    1fxyz             1.103628       7.117891
                         11       1    1fxz2             1.103628       4.109516
                         11       1    1fy3              1.103628       1.837832
                         11       1    1fy2z             1.103628       4.109516
                         11       1    1fyz2             1.103628       4.109516
                         11       1    1fz3              1.103628       1.837832

                         12       1    1px               1.390701       2.152694
                         12       1    1py               1.390701       2.152694
                         12       1    1pz               1.390701       2.152694

                         13       1    1dx2              1.439171       3.112475
                         13       1    1dxy              1.439171       5.390965
                         13       1    1dxz              1.439171       5.390965
                         13       1    1dy2              1.439171       3.112475
                         13       1    1dyz              1.439171       5.390965
                         13       1    1dz2              1.439171       3.112475

                         14       1    1gx4              1.615953       4.164995
                         14       1    1gx3y             1.615953      11.019542
                         14       1    1gx3z             1.615953      11.019542
                         14       1    1gx2y2            1.615953      14.226167
                         14       1    1gx2yz            1.615953      24.640444
                         14       1    1gx2z2            1.615953      14.226167
                         14       1    1gxy3             1.615953      11.019542
                         14       1    1gxy2z            1.615953      24.640444
                         14       1    1gxyz2            1.615953      24.640444
                         14       1    1gxz3             1.615953      11.019542
                         14       1    1gy4              1.615953       4.164995
                         14       1    1gy3z             1.615953      11.019542
                         14       1    1gy2z2            1.615953      14.226167
                         14       1    1gyz3             1.615953      11.019542
                         14       1    1gz4              1.615953       4.164995

                         15       1    1px               2.100661       3.604831
                         15       1    1py               2.100661       3.604831
                         15       1    1pz               2.100661       3.604831

                         16       1    1s                2.197983       1.286555

                         17       1    1dx2              2.302596       7.084198
                         17       1    1dxy              2.302596      12.270190
                         17       1    1dxz              2.302596      12.270190
                         17       1    1dy2              2.302596       7.084198
                         17       1    1dyz              2.302596      12.270190
                         17       1    1dz2              2.302596       7.084198

       Atomic covalent radius [Angstrom]:                                  1.300

       Atomic van der Waals radius [Angstrom]:                             1.670

     GTH Potential information for                                  GTH-PADE-q14

       Description:                       Goedecker-Teter-Hutter pseudopotential
                                           Goedecker et al., PRB 54, 1703 (1996)
                                          Hartwigsen et al., PRB 58, 3641 (1998)
                                                      Krack, TCA 114, 145 (2005)

       Gaussian exponent of the core charge distribution:               2.704164
       Electronic configuration (s p d ...):                           3   6   5

       Parameters of the local part of the GTH pseudopotential:

                          rloc        C1          C2          C3          C4
                        0.430000   16.237452    1.496536

       Parameters of the non-local part of the GTH pseudopotential:

                   l      r(l)      h(i,j,l)

                   0    0.376255    3.362426    2.048528
                                    2.048528   -5.289276
                   1    0.361734   -0.379571    1.718923
                                    1.718923   -4.067713
                   2    0.525828   -1.543211   -0.473760
                                   -0.473760    1.074388

  2. Atomic kind: Se                                    Number of atoms:     162

     Orbital Basis Set                                        TZVP-MOLOPT-SR-GTH

       Number of orbital shell sets:                                           1
       Number of orbital shells:                                               7
       Number of primitive Cartesian functions:                                4
       Number of Cartesian basis functions:                                   18
       Number of spherical basis functions:                                   17
       Norm type:                                                              2

       Normalised Cartesian orbitals:

                        Set   Shell   Orbital            Exponent    Coefficient

                          1       1    2s                1.465689       0.302678
                                                         1.029752      -0.073168
                                                         0.303575      -0.202711
                                                         0.107173      -0.059713

                          1       2    3s                1.465689      -0.155491
                                                         1.029752       0.241663
                                                         0.303575      -0.363851
                                                         0.107173       0.233571

                          1       3    4s                1.465689       1.273873
                                                         1.029752      -0.825574
                                                         0.303575       0.111847
                                                         0.107173       0.081995

                          1       4    3px               1.465689       0.612976
                                                         1.029752      -0.484874
                                                         0.303575      -0.234718
                                                         0.107173      -0.021524
                          1       4    3py               1.465689       0.612976
                                                         1.029752      -0.484874
                                                         0.303575      -0.234718
                                                         0.107173      -0.021524
                          1       4    3pz               1.465689       0.612976
                                                         1.029752      -0.484874
                                                         0.303575      -0.234718
                                                         0.107173      -0.021524

                          1       5    4px               1.465689       0.383325
                                                         1.029752      -0.329453
                                                         0.303575      -0.075164
                                                         0.107173       0.102417
                          1       5    4py               1.465689       0.383325
                                                         1.029752      -0.329453
                                                         0.303575      -0.075164
                                                         0.107173       0.102417
                          1       5    4pz               1.465689       0.383325
                                                         1.029752      -0.329453
                                                         0.303575      -0.075164
                                                         0.107173       0.102417

                          1       6    5px               1.465689       3.760520
                                                         1.029752      -2.704359
                                                         0.303575       0.485527
                                                         0.107173      -0.024362
                          1       6    5py               1.465689       3.760520
                                                         1.029752      -2.704359
                                                         0.303575       0.485527
                                                         0.107173      -0.024362
                          1       6    5pz               1.465689       3.760520
                                                         1.029752      -2.704359
                                                         0.303575       0.485527
                                                         0.107173      -0.024362

                          1       7    4dx2              1.465689       0.513111
                                                         1.029752      -0.664167
                                                         0.303575      -0.134856
                                                         0.107173      -0.008700
                          1       7    4dxy              1.465689       0.888735
                                                         1.029752      -1.150371
                                                         0.303575      -0.233577
                                                         0.107173      -0.015069
                          1       7    4dxz              1.465689       0.888735
                                                         1.029752      -1.150371
                                                         0.303575      -0.233577
                                                         0.107173      -0.015069
                          1       7    4dy2              1.465689       0.513111
                                                         1.029752      -0.664167
                                                         0.303575      -0.134856
                                                         0.107173      -0.008700
                          1       7    4dyz              1.465689       0.888735
                                                         1.029752      -1.150371
                                                         0.303575      -0.233577
                                                         0.107173      -0.015069
                          1       7    4dz2              1.465689       0.513111
                                                         1.029752      -0.664167
                                                         0.303575      -0.134856
                                                         0.107173      -0.008700

     RI Auxiliary Basis Set                                 def2-SVP-RIFIT-mod-3

       Number of orbital shell sets:                                          12
       Number of orbital shells:                                              12
       Number of primitive Cartesian functions:                               12
       Number of Cartesian basis functions:                                   44
       Number of spherical basis functions:                                   38
       Norm type:                                                              2

       Normalised Cartesian orbitals:

                        Set   Shell   Orbital            Exponent    Coefficient

                          1       1    1s                0.228146       0.235272

                          2       1    1dx2              0.255873       0.151514
                          2       1    1dxy              0.255873       0.262430
                          2       1    1dxz              0.255873       0.262430
                          2       1    1dy2              0.255873       0.151514
                          2       1    1dyz              0.255873       0.262430
                          2       1    1dz2              0.255873       0.151514

                          3       1    1px               0.271607       0.279490
                          3       1    1py               0.271607       0.279490
                          3       1    1pz               0.271607       0.279490

                          4       1    1s                0.368618       0.337165

                          5       1    1dx2              0.492940       0.477308
                          5       1    1dxy              0.492940       0.826723
                          5       1    1dxz              0.492940       0.826723
                          5       1    1dy2              0.492940       0.477308
                          5       1    1dyz              0.492940       0.826723
                          5       1    1dz2              0.492940       0.477308

                          6       1    1px               0.522961       0.633908
                          6       1    1py               0.522961       0.633908
                          6       1    1pz               0.522961       0.633908

                          7       1    1s                0.572587       0.469128

                          8       1    1fx3              0.711060       0.683508
                          8       1    1fx2y             0.711060       1.528371
                          8       1    1fx2z             0.711060       1.528371
                          8       1    1fxy2             0.711060       1.528371
                          8       1    1fxyz             0.711060       2.647216
                          8       1    1fxz2             0.711060       1.528371
                          8       1    1fy3              0.711060       0.683508
                          8       1    1fy2z             0.711060       1.528371
                          8       1    1fyz2             0.711060       1.528371
                          8       1    1fz3              0.711060       0.683508

                          9       1    1px               1.002555       1.429965
                          9       1    1py               1.002555       1.429965
                          9       1    1pz               1.002555       1.429965

                         10       1    1dx2              1.339632       2.745579
                         10       1    1dxy              1.339632       4.755483
                         10       1    1dxz              1.339632       4.755483
                         10       1    1dy2              1.339632       2.745579
                         10       1    1dyz              1.339632       4.755483
                         10       1    1dz2              1.339632       2.745579

                         11       1    1px               1.705131       2.777392
                         11       1    1py               1.705131       2.777392
                         11       1    1pz               1.705131       2.777392

                         12       1    1s                2.077977       1.233504

       Atomic covalent radius [Angstrom]:                                  1.160

       Atomic van der Waals radius [Angstrom]:                             1.900

     GTH Potential information for                                   GTH-PADE-q6

       Description:                       Goedecker-Teter-Hutter pseudopotential
                                           Goedecker et al., PRB 54, 1703 (1996)
                                          Hartwigsen et al., PRB 58, 3641 (1998)
                                                      Krack, TCA 114, 145 (2005)

       Gaussian exponent of the core charge distribution:               1.922338
       Electronic configuration (s p d ...):                               2   4

       Parameters of the local part of the GTH pseudopotential:

                          rloc        C1          C2          C3          C4
                        0.510000

       Parameters of the non-local part of the GTH pseudopotential:

                   l      r(l)      h(i,j,l)

                   0    0.432531    5.145131   -0.794740   -0.334051
                                   -0.794740    2.052009    0.862517
                                   -0.334051    0.862517   -1.369203
                   1    0.472473    2.858806    0.249604
                                    0.249604   -0.590670
                   2    0.613420    0.434829


 MOLECULE KIND INFORMATION


 All atoms are their own molecule, skipping detailed information


 TOTAL NUMBERS AND MAXIMUM NUMBERS

  Total number of            - Atomic kinds:                                   2
                             - Atoms:                                        243
                             - Shell sets:                                   243
                             - Shells:                                      2025
                             - Primitive Cartesian functions:               1215
                             - Cartesian basis functions:                   6237
                             - Spherical basis functions:                   5589

  Maximum angular momentum of- Orbital basis functions:                        3
                             - Local part of the GTH pseudopotential:          2
                             - Non-local part of the GTH pseudopotential:      4


 MODULE QUICKSTEP: ATOMIC COORDINATES IN ANGSTROM

   Atom Kind Element         X             Y             Z       Z(eff)     Mass
      2    2 Se   34      1.659874      0.958329      8.838059   6.0000  78.9600
      5    2 Se   34      4.979874      0.958329      8.838059   6.0000  78.9600
      8    2 Se   34      8.299874      0.958329      8.838059   6.0000  78.9600
     11    2 Se   34     11.619874      0.958329      8.838059   6.0000  78.9600
     14    2 Se   34     14.939874      0.958329      8.838059   6.0000  78.9600
     17    2 Se   34     18.259874      0.958329      8.838059   6.0000  78.9600
     20    2 Se   34     21.579874      0.958329      8.838059   6.0000  78.9600
     23    2 Se   34     24.899874      0.958329      8.838059   6.0000  78.9600
     26    2 Se   34     28.219874      0.958329      8.838059   6.0000  78.9600
     28    1 Mo   42     -1.660000      2.875000      7.169029  14.0000  95.9600
     29    2 Se   34     -0.000126      3.833329      8.838059   6.0000  78.9600
     31    1 Mo   42      1.660000      2.875000      7.169029  14.0000  95.9600
     32    2 Se   34      3.319874      3.833329      8.838059   6.0000  78.9600
     34    1 Mo   42      4.980000      2.875000      7.169029  14.0000  95.9600
     35    2 Se   34      6.639874      3.833329      8.838059   6.0000  78.9600
     38    2 Se   34      9.959874      3.833329      8.838059   6.0000  78.9600
     40    1 Mo   42     11.620000      2.875000      7.169029  14.0000  95.9600
     41    2 Se   34     13.279874      3.833329      8.838059   6.0000  78.9600
     43    1 Mo   42     14.940000      2.875000      7.169029  14.0000  95.9600
     44    2 Se   34     16.599874      3.833329      8.838059   6.0000  78.9600
     46    1 Mo   42     18.260000      2.875000      7.169029  14.0000  95.9600
     47    2 Se   34     19.919874      3.833329      8.838059   6.0000  78.9600
     49    1 Mo   42     21.580000      2.875000      7.169029  14.0000  95.9600
     50    2 Se   34     23.239874      3.833329      8.838059   6.0000  78.9600
     53    2 Se   34     26.559874      3.833329      8.838059   6.0000  78.9600
     55    1 Mo   42     -3.320000      5.750000      7.169029  14.0000  95.9600
     56    2 Se   34     -1.660126      6.708329      8.838059   6.0000  78.9600
     59    2 Se   34      1.659874      6.708329      8.838059   6.0000  78.9600
     61    1 Mo   42      3.320000      5.750000      7.169029  14.0000  95.9600
     62    2 Se   34      4.979874      6.708329      8.838059   6.0000  78.9600
     64    1 Mo   42      6.640000      5.750000      7.169029  14.0000  95.9600
     65    2 Se   34      8.299874      6.708329      8.838059   6.0000  78.9600
     67    1 Mo   42      9.960000      5.750000      7.169029  14.0000  95.9600
     68    2 Se   34     11.619874      6.708329      8.838059   6.0000  78.9600
     70    1 Mo   42     13.280000      5.750000      7.169029  14.0000  95.9600
     71    2 Se   34     14.939874      6.708329      8.838059   6.0000  78.9600
     74    2 Se   34     18.259874      6.708329      8.838059   6.0000  78.9600
     76    1 Mo   42     19.920000      5.750000      7.169029  14.0000  95.9600
     77    2 Se   34     21.579874      6.708329      8.838059   6.0000  78.9600
     79    1 Mo   42     23.240000      5.750000      7.169029  14.0000  95.9600
     80    2 Se   34     24.899874      6.708329      8.838059   6.0000  78.9600
     82    1 Mo   42     -4.980000      8.625000      7.169029  14.0000  95.9600
     83    2 Se   34     -3.320126      9.583329      8.838059   6.0000  78.9600
     85    1 Mo   42     -1.660000      8.625000      7.169029  14.0000  95.9600
     86    2 Se   34     -0.000126      9.583329      8.838059   6.0000  78.9600
     88    1 Mo   42      1.660000      8.625000      7.169029  14.0000  95.9600
     89    2 Se   34      3.319874      9.583329      8.838059   6.0000  78.9600
     91    1 Mo   42      4.980000      8.625000      7.169029  14.0000  95.9600
     92    2 Se   34      6.639874      9.583329      8.838059   6.0000  78.9600
     95    2 Se   34      9.959874      9.583329      8.838059   6.0000  78.9600
     97    1 Mo   42     11.620000      8.625000      7.169029  14.0000  95.9600
     98    2 Se   34     13.279874      9.583329      8.838059   6.0000  78.9600
    100    1 Mo   42     14.940000      8.625000      7.169029  14.0000  95.9600
    101    2 Se   34     16.599874      9.583329      8.838059   6.0000  78.9600
    103    1 Mo   42     18.260000      8.625000      7.169029  14.0000  95.9600
    104    2 Se   34     19.919874      9.583329      8.838059   6.0000  78.9600
    106    1 Mo   42     21.580000      8.625000      7.169029  14.0000  95.9600
    107    2 Se   34     23.239874      9.583329      8.838059   6.0000  78.9600
    110    2 Se   34     -4.980126     12.458329      8.838059   6.0000  78.9600
    113    2 Se   34     -1.660126     12.458329      8.838059   6.0000  78.9600
    116    2 Se   34      1.659874     12.458329      8.838059   6.0000  78.9600
    119    2 Se   34      4.979874     12.458329      8.838059   6.0000  78.9600
    122    2 Se   34      8.299874     12.458329      8.838059   6.0000  78.9600
    125    2 Se   34     11.619874     12.458329      8.838059   6.0000  78.9600
    128    2 Se   34     14.939874     12.458329      8.838059   6.0000  78.9600
    131    2 Se   34     18.259874     12.458329      8.838059   6.0000  78.9600
    134    2 Se   34     21.579874     12.458329      8.838059   6.0000  78.9600
    137    2 Se   34     -6.640126     15.333329      8.838059   6.0000  78.9600
    139    1 Mo   42     -4.980000     14.375000      7.169029  14.0000  95.9600
    140    2 Se   34     -3.320126     15.333329      8.838059   6.0000  78.9600
    142    1 Mo   42     -1.660000     14.375000      7.169029  14.0000  95.9600
    143    2 Se   34     -0.000126     15.333329      8.838059   6.0000  78.9600
    145    1 Mo   42      1.660000     14.375000      7.169029  14.0000  95.9600
    146    2 Se   34      3.319874     15.333329      8.838059   6.0000  78.9600
    148    1 Mo   42      4.980000     14.375000      7.169029  14.0000  95.9600
    149    2 Se   34      6.639874     15.333329      8.838059   6.0000  78.9600
    152    2 Se   34      9.959874     15.333329      8.838059   6.0000  78.9600
    154    1 Mo   42     11.620000     14.375000      7.169029  14.0000  95.9600
    155    2 Se   34     13.279874     15.333329      8.838059   6.0000  78.9600
    157    1 Mo   42     14.940000     14.375000      7.169029  14.0000  95.9600
    158    2 Se   34     16.599874     15.333329      8.838059   6.0000  78.9600
    160    1 Mo   42     18.260000     14.375000      7.169029  14.0000  95.9600
    161    2 Se   34     19.919874     15.333329      8.838059   6.0000  78.9600
    163    1 Mo   42     -9.960000     17.250000      7.169029  14.0000  95.9600
    164    2 Se   34     -8.300126     18.208329      8.838059   6.0000  78.9600
    166    1 Mo   42     -6.640000     17.250000      7.169029  14.0000  95.9600
    167    2 Se   34     -4.980126     18.208329      8.838059   6.0000  78.9600
    169    1 Mo   42     -3.320000     17.250000      7.169029  14.0000  95.9600
    170    2 Se   34     -1.660126     18.208329      8.838059   6.0000  78.9600
    173    2 Se   34      1.659874     18.208329      8.838059   6.0000  78.9600
    175    1 Mo   42      3.320000     17.250000      7.169029  14.0000  95.9600
    176    2 Se   34      4.979874     18.208329      8.838059   6.0000  78.9600
    178    1 Mo   42      6.640000     17.250000      7.169029  14.0000  95.9600
    179    2 Se   34      8.299874     18.208329      8.838059   6.0000  78.9600
    181    1 Mo   42      9.960000     17.250000      7.169029  14.0000  95.9600
    182    2 Se   34     11.619874     18.208329      8.838059   6.0000  78.9600
    184    1 Mo   42     13.280000     17.250000      7.169029  14.0000  95.9600
    185    2 Se   34     14.939874     18.208329      8.838059   6.0000  78.9600
    188    2 Se   34     18.259874     18.208329      8.838059   6.0000  78.9600
    190    1 Mo   42    -11.620000     20.125000      7.169029  14.0000  95.9600
    191    2 Se   34     -9.960126     21.083329      8.838059   6.0000  78.9600
    194    2 Se   34     -6.640126     21.083329      8.838059   6.0000  78.9600
    196    1 Mo   42     -4.980000     20.125000      7.169029  14.0000  95.9600
    197    2 Se   34     -3.320126     21.083329      8.838059   6.0000  78.9600
    199    1 Mo   42     -1.660000     20.125000      7.169029  14.0000  95.9600
    200    2 Se   34     -0.000126     21.083329      8.838059   6.0000  78.9600
    202    1 Mo   42      1.660000     20.125000      7.169029  14.0000  95.9600
    203    2 Se   34      3.319874     21.083329      8.838059   6.0000  78.9600
    205    1 Mo   42      4.980000     20.125000      7.169029  14.0000  95.9600
    206    2 Se   34      6.639874     21.083329      8.838059   6.0000  78.9600
    209    2 Se   34      9.959874     21.083329      8.838059   6.0000  78.9600
    211    1 Mo   42     11.620000     20.125000      7.169029  14.0000  95.9600
    212    2 Se   34     13.279874     21.083329      8.838059   6.0000  78.9600
    214    1 Mo   42     14.940000     20.125000      7.169029  14.0000  95.9600
    215    2 Se   34     16.599874     21.083329      8.838059   6.0000  78.9600
    218    2 Se   34    -11.620126     23.958329      8.838059   6.0000  78.9600
    221    2 Se   34     -8.300126     23.958329      8.838059   6.0000  78.9600
    224    2 Se   34     -4.980126     23.958329      8.838059   6.0000  78.9600
    227    2 Se   34     -1.660126     23.958329      8.838059   6.0000  78.9600
    230    2 Se   34      1.659874     23.958329      8.838059   6.0000  78.9600
    233    2 Se   34      4.979874     23.958329      8.838059   6.0000  78.9600
    236    2 Se   34      8.299874     23.958329      8.838059   6.0000  78.9600
    239    2 Se   34     11.619874     23.958329      8.838059   6.0000  78.9600
    242    2 Se   34     14.939874     23.958329      8.838059   6.0000  78.9600



 SCF PARAMETERS         Density guess:                                   RESTART
                        --------------------------------------------------------
                        max_scf:                                             100
                        max_scf_history:                                       0
                        max_diis:                                              4
                        --------------------------------------------------------
                        eps_scf:                                        1.00E-09
                        eps_scf_history:                                0.00E+00
                        eps_diis:                                       1.00E-01
                        eps_eigval:                                     1.00E-05
                        --------------------------------------------------------
                        added MOs                                      4536    0
                        --------------------------------------------------------
                        Mixing method:                            BROYDEN_MIXING
                                                charge density mixing in g-space
                        --------------------------------------------------------
                        No outer SCF
  MB

 PW_GRID| Information for grid number                                          1
 PW_GRID| Grid distributed over                                   396 processors
 PW_GRID| Real space group dimensions                                   396    1
 PW_GRID| the grid is blocked:                                                NO
 PW_GRID| Cutoff [a.u.]                                                    250.0
 PW_GRID| spherical cutoff:                                                   NO
 PW_GRID|   Bounds   1           -202     202                Points:         405
 PW_GRID|   Bounds   2           -202     202                Points:         405
 PW_GRID|   Bounds   3           -108     107                Points:         216
 PW_GRID| Volume element (a.u.^3)  0.2209E-02     Volume (a.u.^3)     78261.6171
 PW_GRID| Grid span                                                    FULLSPACE
 PW_GRID|   Distribution                         Average         Max         Min
 PW_GRID|   G-Vectors                            89468.2       89505       89100
 PW_GRID|   G-Rays                                 220.9         221         220
 PW_GRID|   Real Space Points                    89468.2      174960       87480

 PW_GRID| Information for grid number                                          2
 PW_GRID| Number of the reference grid                                         1
 PW_GRID| Grid distributed over                                   396 processors
 PW_GRID| Real space group dimensions                                    18   22
 PW_GRID| the grid is blocked:                                                NO
 PW_GRID| Cutoff [a.u.]                                                     83.3
 PW_GRID| spherical cutoff:                                                   NO
 PW_GRID|   Bounds   1           -120     119                Points:         240
 PW_GRID|   Bounds   2           -120     119                Points:         240
 PW_GRID|   Bounds   3            -60      59                Points:         120
 PW_GRID| Volume element (a.u.^3)  0.1132E-01     Volume (a.u.^3)     78261.6171
 PW_GRID| Grid span                                                    FULLSPACE
 PW_GRID|   Distribution                         Average         Max         Min
 PW_GRID|   G-Vectors                            17454.5       20400       13680
 PW_GRID|   G-Rays                                  72.7          85          57
 PW_GRID|   Real Space Points                    17454.5       18480       15600

 PW_GRID| Information for grid number                                          3
 PW_GRID| Number of the reference grid                                         1
 PW_GRID| Grid distributed over                                   396 processors
 PW_GRID| Real space group dimensions                                    18   22
 PW_GRID| the grid is blocked:                                                NO
 PW_GRID| Cutoff [a.u.]                                                     27.8
 PW_GRID| spherical cutoff:                                                   NO
 PW_GRID|   Bounds   1            -67      67                Points:         135
 PW_GRID|   Bounds   2            -67      67                Points:         135
 PW_GRID|   Bounds   3            -36      35                Points:          72
 PW_GRID| Volume element (a.u.^3)  0.5964E-01     Volume (a.u.^3)     78261.6171
 PW_GRID| Grid span                                                    FULLSPACE
 PW_GRID|   Distribution                         Average         Max         Min
 PW_GRID|   G-Vectors                             3313.6        3915        2700
 PW_GRID|   G-Rays                                  24.5          29          20
 PW_GRID|   Real Space Points                     3313.6        4032        3024

 PW_GRID| Information for grid number                                          4
 PW_GRID| Number of the reference grid                                         1
 PW_GRID| Grid distributed over                                   396 processors
 PW_GRID| Real space group dimensions                                    18   22
 PW_GRID| the grid is blocked:                                                NO
 PW_GRID| Cutoff [a.u.]                                                      9.3
 PW_GRID| spherical cutoff:                                                   NO
 PW_GRID|   Bounds   1            -40      39                Points:          80
 PW_GRID|   Bounds   2            -40      39                Points:          80
 PW_GRID|   Bounds   3            -20      19                Points:          40
 PW_GRID| Volume element (a.u.^3)  0.3057         Volume (a.u.^3)     78261.6171
 PW_GRID| Grid span                                                    FULLSPACE
 PW_GRID|   Distribution                         Average         Max         Min
 PW_GRID|   G-Vectors                              646.5        1040         320
 PW_GRID|   G-Rays                                   8.1          13           4
 PW_GRID|   Real Space Points                      646.5         800         480

 POISSON| Solver                                                        PERIODIC
 POISSON| Periodicity                                                        XYZ

 *** WARNING in pw_env_methods.F:737 :: The selected periodicities in the ***
 *** sections &CELL and &POISSON do not match                             ***


 RS_GRID| Information for grid number                                          1
 RS_GRID|   Bounds   1           -202     202                Points:         405
 RS_GRID|   Bounds   2           -202     202                Points:         405
 RS_GRID|   Bounds   3           -108     107                Points:         216
 RS_GRID| Real space distribution over                                 18 groups
 RS_GRID| Real space distribution along direction                              1
 RS_GRID| Border size                                                         84
 RS_GRID| Real space distribution over                                 22 groups
 RS_GRID| Real space distribution along direction                              2
 RS_GRID| Border size                                                         84
 RS_GRID|   Distribution                         Average         Max         Min
 RS_GRID|   Planes                                 190.5         191         190
 RS_GRID|   Distribution                         Average         Max         Min
 RS_GRID|   Planes                                 186.4         187         186

 RS_GRID| Information for grid number                                          2
 RS_GRID|   Bounds   1           -120     119                Points:         240
 RS_GRID|   Bounds   2           -120     119                Points:         240
 RS_GRID|   Bounds   3            -60      59                Points:         120
 RS_GRID| Real space fully replicated
 RS_GRID| Group size                                                           1

 RS_GRID| Information for grid number                                          3
 RS_GRID|   Bounds   1            -67      67                Points:         135
 RS_GRID|   Bounds   2            -67      67                Points:         135
 RS_GRID|   Bounds   3            -36      35                Points:          72
 RS_GRID| Real space fully replicated
 RS_GRID| Group size                                                           1

 RS_GRID| Information for grid number                                          4
 RS_GRID|   Bounds   1            -40      39                Points:          80
 RS_GRID|   Bounds   2            -40      39                Points:          80
 RS_GRID|   Bounds   3            -20      19                Points:          40
 RS_GRID| Real space fully replicated
 RS_GRID| Group size                                                           1
  MB
  MB
  MB
 
 RI-RPA| using GPW style
 
 B
 B
 MB
 MB
 B
 B
 MB
 MB
 B
  MB
  MB
  MB
  MB
  MB
  MB
  MB
  MB
  MB

 Number of electrons:                                                       2106
 Number of occupied orbitals:                                               1053
 Number of molecular orbitals:                                              5589

 Number of orbital functions:                                               5589
 Number of independent orbital functions:                                   5589

 Extrapolation method: initial_guess
  MB


 SCF WAVEFUNCTION OPTIMIZATION

  Step     Update method      Time    Convergence         Total energy    Change
  ------------------------------------------------------------------------------
     2 Broy./Diag. 0.10E+00    4.9     2.3808E-09     -7069.6827476982 -3.07E-06
     4 Broy./Diag. 0.10E+00    3.9     1.0432E-09     -7069.6827446017  2.25E-06
     5 Broy./Diag. 0.10E+00    3.9     3.7056E-09     -7069.6827447707 -1.69E-07
     6 Broy./Diag. 0.10E+00    4.0     1.9335E-09     -7069.6827447329  3.78E-08
     7 Broy./Diag. 0.10E+00    3.9     1.6811E-09     -7069.6827448504 -1.17E-07
     8 Broy./Diag. 0.10E+00    3.9     2.0220E-10     -7069.6827448671 -1.67E-08

  *** SCF run converged in     8 steps ***



  Self energy of the core charge distribution:             -13641.03903904207255
  Core Hamiltonian energy:                                   3117.86337535764414
  Hartree energy:                                            4419.73043036683612
  Exchange-correlation energy:                               -966.23751155459217

  Total energy:                                             -7069.68274486705923
 MB
 MB

 !-----------------------------------------------------------------------------!
                     Mulliken Population Analysis

 #  Atom  Element  Kind  Atomic population                           Net charge
       1     Mo       1         14.732354                             -0.732354
       2     Se       2          5.633823                              0.366177
       3     Se       2          5.633823                              0.366177
       4     Mo       1         14.732354                             -0.732354
       5     Se       2          5.633823                              0.366177
       6     Se       2          5.633823                              0.366177
       7     Mo       1         14.732354                             -0.732354
       8     Se       2          5.633823                              0.366177
       9     Se       2          5.633823                              0.366177
      10     Mo       1         14.732354                             -0.732354
      11     Se       2          5.633823                              0.366177
      12     Se       2          5.633823                              0.366177
      13     Mo       1         14.732354                             -0.732354
      14     Se       2          5.633823                              0.366177
      15     Se       2          5.633823                              0.366177
      16     Mo       1         14.732354                             -0.732354
      17     Se       2          5.633823                              0.366177
      18     Se       2          5.633823                              0.366177
      19     Mo       1         14.732354                             -0.732354
      20     Se       2          5.633823                              0.366177
      21     Se       2          5.633823                              0.366177
      22     Mo       1         14.732354                             -0.732354
      23     Se       2          5.633823                              0.366177
      24     Se       2          5.633823                              0.366177
      25     Mo       1         14.732354                             -0.732354
      26     Se       2          5.633823                              0.366177
      27     Se       2          5.633823                              0.366177
      28     Mo       1         14.732354                             -0.732354
      29     Se       2          5.633823                              0.366177
      30     Se       2          5.633823                              0.366177
      31     Mo       1         14.732354                             -0.732354
      32     Se       2          5.633823                              0.366177
      33     Se       2          5.633823                              0.366177
      34     Mo       1         14.732354                             -0.732354
      35     Se       2          5.633823                              0.366177
      36     Se       2          5.633823                              0.366177
      37     Mo       1         14.732354                             -0.732354
[...]
  1109 ( vir )             1.884          -3.704           4.641           2.821
  1110 ( vir )             1.884          -3.705           4.640           2.820
  1111 ( vir )             1.888          -3.859           4.825           2.854
  1112 ( vir )             1.888          -3.858           4.824           2.855
  1113 ( vir )             1.890          -3.747           4.689           2.832
  1114 ( vir )             1.890          -3.746           4.689           2.833
  1115 ( vir )             1.893          -3.703           4.628           2.818
  1116 ( vir )             1.893          -3.703           4.627           2.817
  1117 ( vir )             1.894          -3.821           4.778           2.850
  1118 ( vir )             1.894          -3.821           4.778           2.850
  1119 ( vir )             1.901          -3.740           4.675           2.836
  1120 ( vir )             1.901          -3.740           4.675           2.836
  1121 ( vir )             1.902          -3.691           4.622           2.833
  1122 ( vir )             1.902          -3.690           4.622           2.834
  1123 ( vir )             1.949          -3.363           4.195           2.782
  1124 ( vir )             1.950          -3.364           4.196           2.781
  1125 ( vir )             2.055          -3.387           4.209           2.877
  1126 ( vir )             2.055          -3.387           4.209           2.876
  1127 ( vir )             2.081          -3.912           4.829           2.997
  1128 ( vir )             2.081          -3.914           4.829           2.995
  1129 ( vir )             2.081          -3.914           4.829           2.996
  1130 ( vir )             2.081          -3.911           4.829           2.999
  1131 ( vir )             2.085          -3.870           4.782           2.996
  1132 ( vir )             2.086          -3.869           4.782           2.998
  1133 ( vir )             2.093          -3.734           4.622           2.981
  1134 ( vir )             2.093          -3.734           4.622           2.981
  1135 ( vir )             2.103          -3.602           4.469           2.970
  1136 ( vir )             2.103          -3.601           4.469           2.972
  1137 ( vir )             2.126          -3.387           4.198           2.937
  1138 ( vir )             2.127          -3.389           4.198           2.936
  1139 ( vir )             2.129          -3.447           4.293           2.975
  1140 ( vir )             2.129          -3.447           4.293           2.975
  1141 ( vir )             2.130          -3.912           4.822           3.040
  1142 ( vir )             2.131          -3.912           4.822           3.040
  1143 ( vir )             2.145          -4.027           4.949           3.067
  1144 ( vir )             2.145          -4.027           4.949           3.067
  1145 ( vir )             2.157          -3.990           4.908           3.075
  1146 ( vir )             2.157          -3.991           4.908           3.075
  1147 ( vir )             2.177          -4.017           4.937           3.096
  1148 ( vir )             2.177          -4.018           4.936           3.096
  1149 ( vir )             2.178          -3.632           4.643           3.189
  1150 ( vir )             2.178          -3.634           4.643           3.187
  1151 ( vir )             2.180          -3.849           4.735           3.066
  1152 ( vir )             2.180          -3.974           4.885           3.091
  1153 ( vir )             2.181          -3.975           4.885           3.090
  1154 ( vir )             2.184          -3.504           4.345           3.025
  1155 ( vir )             2.184          -3.503           4.345           3.026
  1156 ( vir )             2.184          -4.134           5.074           3.124
  1157 ( vir )             2.184          -4.135           5.073           3.123
  1158 ( vir )             2.191          -3.744           4.612           3.058
  1159 ( vir )             2.201          -4.108           5.033           3.126
  1160 ( vir )             2.201          -4.108           5.034           3.127
  1161 ( vir )             2.212          -3.622           4.624           3.214
  1162 ( vir )             2.212          -3.623           4.624           3.213
  1163 ( vir )             2.215          -4.209           5.162           3.168
  1164 ( vir )             2.215          -4.209           5.161           3.168
  1165 ( vir )             2.227          -3.671           4.690           3.246
  1166 ( vir )             2.231          -3.404           4.204           3.031
  1167 ( vir )             2.231          -3.407           4.204           3.028
  1168 ( vir )             2.233          -3.612           4.457           3.078
  1169 ( vir )             2.233          -3.613           4.458           3.078
  1170 ( vir )             2.237          -3.551           4.527           3.213
  1171 ( vir )             2.237          -3.549           4.526           3.214
  1172 ( vir )             2.239          -3.501           4.332           3.070
  1173 ( vir )             2.239          -3.500           4.333           3.071
  1174 ( vir )             2.241          -3.590           4.577           3.228
  1175 ( vir )             2.241          -3.588           4.576           3.229
  1176 ( vir )             2.251          -3.487           4.440           3.204
  1177 ( vir )             2.251          -3.486           4.440           3.206
  1178 ( vir )             2.258          -3.551           4.384           3.092
  1179 ( vir )             2.258          -3.551           4.385           3.092
  1180 ( vir )             2.273          -4.184           5.108           3.196
  1181 ( vir )             2.273          -4.185           5.108           3.197
  1182 ( vir )             2.277          -4.180           5.111           3.208
  1183 ( vir )             2.277          -3.457           4.396           3.216
  1184 ( vir )             2.278          -4.181           5.112           3.208
  1185 ( vir )             2.278          -3.457           4.397           3.218
  1186 ( vir )             2.279          -3.516           4.479           3.242
  1187 ( vir )             2.279          -3.517           4.480           3.242
  1188 ( vir )             2.283          -4.211           5.129           3.202
  1189 ( vir )             2.289          -4.208           5.129           3.210
  1190 ( vir )             2.290          -4.208           5.129           3.210
  1191 ( vir )             2.295          -3.702           4.722           3.315
  1192 ( vir )             2.312          -4.204           5.148           3.256
  1193 ( vir )             2.313          -4.204           5.148           3.256
  1194 ( vir )             2.326          -4.214           5.159           3.271
  1195 ( vir )             2.326          -4.213           5.160           3.273
  1196 ( vir )             2.329          -4.196           5.128           3.261
  1197 ( vir )             2.329          -4.196           5.129           3.262
  1198 ( vir )             2.353          -3.656           4.647           3.345
  1199 ( vir )             2.354          -3.657           4.648           3.344
  1200 ( vir )             2.357          -3.456           4.261           3.162
  1201 ( vir )             2.357          -3.455           4.261           3.163
  1202 ( vir )             2.357          -4.198           5.133           3.292
  1203 ( vir )             2.358          -4.199           5.133           3.292
  1204 ( vir )             2.398          -4.205           5.139           3.333
  1205 ( vir )             2.399          -4.205           5.140           3.333
  1206 ( vir )             2.407          -3.742           4.758           3.423
  1207 ( vir )             2.407          -3.744           4.758           3.421
  1208 ( vir )             2.412          -3.416           4.326           3.321
  1209 ( vir )             2.458          -3.461           4.236           3.234
  1210 ( vir )             2.460          -3.434           4.222           3.248
  1211 ( vir )             2.461          -3.435           4.222           3.247
  1212 ( vir )             2.479          -4.221           5.140           3.398
  1213 ( vir )             2.479          -4.221           5.140           3.398
  1214 ( vir )             2.484          -3.708           4.694           3.471
  1215 ( vir )             2.485          -3.709           4.695           3.471
  1216 ( vir )             2.499          -3.766           4.775           3.508
  1217 ( vir )             2.500          -3.767           4.775           3.508
  1218 ( vir )             2.537          -3.401           4.287           3.423
  1219 ( vir )             2.573          -3.435           4.205           3.343
  1220 ( vir )             2.573          -3.435           4.205           3.343
  1221 ( vir )             2.575          -4.243           5.152           3.483
  1222 ( vir )             2.575          -4.244           5.152           3.483
  1223 ( vir )             2.600          -4.222           5.125           3.504
  1224 ( vir )             2.608          -3.452           4.220           3.376
  1225 ( vir )             2.609          -3.453           4.221           3.377
  1226 ( vir )             2.614          -3.754           4.773           3.633
  1227 ( vir )             2.614          -3.753           4.773           3.634
  1228 ( vir )             2.631          -3.757           4.775           3.649
  1229 ( vir )             2.631          -3.757           4.775           3.649
  1230 ( vir )             2.634          -3.768           4.785           3.651
  1231 ( vir )             2.637          -3.769           4.748           3.616
  1232 ( vir )             2.637          -3.769           4.748           3.616
  1233 ( vir )             2.641          -3.506           4.265           3.401
  1234 ( vir )             2.649          -3.783           4.796           3.662
  1235 ( vir )             2.657          -3.798           4.809           3.667
  1236 ( vir )             2.657          -3.799           4.809           3.667
  1237 ( vir )             2.657          -3.810           4.811           3.658
  1238 ( vir )             2.657          -3.809           4.811           3.659
  1239 ( vir )             2.660          -3.802           4.798           3.656
  1240 ( vir )             2.660          -3.804           4.798           3.655
  1241 ( vir )             2.672          -3.471           4.229           3.430
  1242 ( vir )             2.672          -3.470           4.230           3.432
  1243 ( vir )             2.673          -3.788           4.769           3.653
  1244 ( vir )             2.673          -3.787           4.769           3.655
  1245 ( vir )             2.674          -3.399           4.261           3.536
  1246 ( vir )             2.674          -3.400           4.261           3.536
  1247 ( vir )             2.693          -3.812           4.819           3.700
  1248 ( vir )             2.693          -3.812           4.818           3.699
  1249 ( vir )             2.714          -3.824           4.825           3.714
  1250 ( vir )             2.714          -3.824           4.825           3.715
  1251 ( vir )             2.722          -3.787           4.797           3.733
  1252 ( vir )             2.724          -4.277           5.166           3.613
  1253 ( vir )             2.747          -3.823           4.810           3.734
   
  GW direct gap at current kpoint (eV)                                     2.253
  
   
  SCF valence band maximum (eV)                                           -0.011
  SCF conduction band minimum (eV)                                         1.448
  SCF bandgap (eV)                                                         1.459
   
  GW valence band maximum (eV)                                             0.319
  GW conduction band minimum (eV)                                          2.382
  GW bandgap (eV)                                                          2.063
 
  Total RI-RPA Time=                                                 9504.096607

 ENERGY| Total FORCE_EVAL ( QS ) energy [a.u.]:            -7069.682744867059228

 -------------------------------------------------------------------------------
 -                                                                             -
 -                                T I M I N G                                  -
 -                                                                             -
 -------------------------------------------------------------------------------
 SUBROUTINE                       CALLS  ASD         SELF TIME        TOTAL TIME
                                MAXIMUM       AVERAGE  MAXIMUM  AVERAGE  MAXIMUM
 CP2K                                 1  1.0    0.070    0.080 9550.196 9550.301
 qs_energies                          1  2.0    0.004    0.006 9546.208 9546.347
 mp2_main                             1  3.0    0.002    0.003 9507.575 9507.714
 mp2_gpw_main                         1  4.0    0.005    0.017 9504.094 9504.233
 rpa_ri_compute_en                    1  5.0    0.000    0.002 8681.788 8681.918
 rpa_num_int                          1  6.0    0.001    0.015 8321.736 8321.868
 dbt_total                         1907  9.8    0.013    0.374 4341.066 4341.113
 dbt_contract                       765 11.0    0.044    1.088 3855.843 3856.512
 dbt_tas_total                     1206 13.4   99.391  118.078 3781.838 3781.880
 dbt_tas_multiply                  1065 12.8    0.003    0.209 3768.355 3768.399
 compute_QP_energies                  1  7.0    0.001    0.009 3628.255 3628.294
 compute_self_energy_cubic_gw_k       1  8.0    0.172    0.273 3628.025 3628.163
 rpa_num_int_RPA_matrix_operati      10  7.0    0.000    0.001 3342.272 3342.345
 invert_eps_compute_W_and_Erpa_      10  8.0    0.005    0.049 3342.203 3342.272
 dbt_tas_dbm                       1065 14.8    0.005    0.167 2608.383 2608.411
 compute_Q_kp_RPA                   260  9.0    0.410    0.570 2427.122 2427.860
 cp_cfm_heevd                       441 10.2 2400.183 2401.865 2400.183 2401.865
 cp_cfm_power                       312  9.7    0.351    0.569 2400.409 2400.951
 dbm_multiply                      1065 16.8 2174.296 2344.984 2174.296 2344.984
 contract_to_self_energy            198  9.0    0.006    0.257 1600.755 1604.842
 tensor_operation_3c_W               99  9.0    0.001    0.031 1457.401 1461.215
 parallel_gemm_cfm                 4194 10.2    0.018    1.445 1379.575 1388.870
 parallel_gemm_cfm_cosma           4194 11.2 1379.556 1388.857 1379.556 1388.857
 compute_mat_P_omega                  1  7.0    0.001    0.024 1348.211 1348.260
 compute_mat_P_omega_contract        10  8.0    4.324    5.468 1330.274 1330.647
 dbt_tas_mm_3N                      198 16.5    0.001    0.056  969.671 1040.253
 mp_sync                           8976 12.5  734.314  873.915  734.314  873.915
 mp2_ri_gpw_compute_in                1  5.0    0.007    0.012  822.287  822.296
 dbt_tas_mm_2                       289 15.0    0.002    0.111  809.624  809.633
 get_2c_integrals                     1  6.0    0.002    0.002  773.275  773.285
 compute_Wc_real_space_tau_GW       260  9.0    0.003    0.062  763.125  764.842
 trafo_to_mo_and_kpoints             21  9.0    0.195    1.161  528.335  528.787
 dbt_tas_replicate                  927 15.0   19.661  230.179  370.676  502.379
 mp_waitall_2                      5529 16.8  307.419  420.550  307.419  420.550
 dbt_copy                           947 10.8    0.039    0.353  375.377  417.546
 inversion_of_M_and_mult_with_c       1  7.0    0.001    0.025  415.859  415.867
 dbt_reshape                        927 11.8   68.088  111.384  371.576  413.697
 compute_mat_P_omega_calc_P_t        90  9.0    0.000    0.016  406.950  406.955
 compute_mat_P_omega_calc_M_occ      90  9.0    4.228    5.416  383.933  383.938
 compute_Wc_real_space_tau_GW_3     260 10.0    0.002    0.040  363.716  368.244
 dbt_tas_mm_3T                      396 16.5    0.001    0.094  323.323  360.201
 get_bandstruc_and_k_dependent_       1  6.0    0.001    0.002  360.048  360.088
 create_kp_and_calc_kp_orbitals       3  7.0    0.005    0.080  360.047  360.086
 cp_cfm_geeig                       129  8.0    0.006    0.115  329.551  332.888
 compute_V_by_lattice_sum             1  7.0    0.000    0.021  318.390  318.402
 build_2c_coulomb_matrix_kp           2  8.0    0.000    0.001  251.889  312.258
 lattice_sum                          2  9.0    8.183   10.329  251.887  312.257
 dbt_communicate_buffer             927 12.8    0.211   15.513  285.064  307.336
 mp_alltoall_i22                  15293 12.7  208.481  307.268  208.481  307.268
 dbm_redistribute                  1794 15.7  283.081  303.545  283.081  303.545
 compute_v_transl                 13312 10.0  242.988  302.832  243.577  303.393
 convert_to_new_pgrid              3195 14.8   47.676   73.490  268.986  287.164
 mp_alltoall_i                     3712 15.1  249.010  272.106  249.010  272.106
 dbt_tas_mm_1N                      182 15.0    0.001    0.057  226.123  266.889
 copy_dbcsr_to_fm                  3842 10.5    0.077    2.343  170.478  264.508
 dbt_tas_replicate_alltoall         717 16.3    0.001    0.042  241.076  263.437
 dbt_tas_communicate_buffer        1854 17.3    0.318   27.561  135.718  245.753
 compute_mat_P_omega_calc_M_vir      90  9.0    0.000    0.010  236.610  236.615
 dbt_tas_replicate_communicate_     717 16.3    0.058    0.139  103.033  217.031
 dbcsr_desymmetrize_deep           3902 11.4    2.004    5.884  120.102  215.091
 dbt_tas_estimate_result_nze        300 14.0    3.503    3.991  212.909  212.912
 compute_Wc_real_space_tau_GW_2     260 10.0    0.127    0.182  207.053  208.819
 mp_cart_rank                   ******* 16.2    1.667  202.208    1.667  202.208
 cp_cfm_cholesky_invert             260 11.0  199.652  200.385  199.652  200.385
 cp_fm_copy_general                 675 10.1    0.004    0.132  183.944  187.858
 compute_Wc_real_space_tau_GW_4     260 10.0    3.345   93.664    8.341  187.485
 cp_fm_start_copy_general           675 11.1    0.845    1.664  182.994  187.052
 compute_Wc_real_space_tau_GW_5     260 10.0    0.007    0.100  182.244  186.759
 mp_allgather_i                    1350 12.1  180.967  185.142  180.967  185.142
 mp_isend_im2                    100677 13.7   97.622  173.537   97.622  173.537
 real_space_to_kpoint_transform      37  9.8    5.232   10.067  148.066  148.259
 dbcsr_new_transposed              7458 10.9    1.343    3.831  141.148  143.575
 dbcsr_redistribute                7448 11.9    4.004   16.861  139.634  142.357
 compute_mat_P_omega_copy_M_vir      90  9.0    0.001    0.029  112.172  113.592
 cp_cfm_cholesky_decompose          389  9.7  104.389  104.469  104.389  104.469
 compute_weight_re_im           6469086 11.0    5.259  100.293    5.259  100.293
 cholesky_decomp_Q                  260  9.0    0.714    0.935   95.798   96.547
 -------------------------------------------------------------------------------

 The number of warnings for this run is : 2
 
 -------------------------------------------------------------------------------
  **** **** ******  **  PROGRAM ENDED AT                 2023-03-04 11:01:46.536
 ***** ** ***  *** **   PROGRAM RAN ON                          f0717.nhr.fau.de
 **    ****   ******    PROGRAM RAN BY                                  b165da10
 ***** **    ** ** **   PROGRAM PROCESS ID                                915372
  **** **  *******  **  PROGRAM STOPPED IN /home/atuin/b165da/b165da10/12_MoSe2/
                                           09x09/4_RI-3_RI_reg_1E-2
