 DBCSR| CPU Multiplication driver                                           XSMM (U)
 DBCSR| Multrec recursion limit                                              512 (U)
 DBCSR| Multiplication stack size                                           1000 (D)
 DBCSR| Maximum elements for images                                    UNLIMITED (U)
 DBCSR| Multiplicative factor virtual images                                   1 (U)
 DBCSR| Use multiplication densification                                       T (D)
 DBCSR| Multiplication size stacks                                             3 (U)
 DBCSR| Use memory pool for CPU allocation                                     F (U)
 DBCSR| Number of 3D layers                                               SINGLE (U)
 DBCSR| Use MPI memory allocation                                              F (U)
 DBCSR| Use RMA algorithm                                                      F (U)
 DBCSR| Use Communication thread                                               T (U)
 DBCSR| Communication thread load                                             87 (D)
 DBCSR| MPI: My process id                                                     0
 DBCSR| MPI: Number of processes                                            1280
 DBCSR| OMP: Current number of threads                                         1
 DBCSR| OMP: Max number of threads                                             1
 DBCSR| Split modifier for TAS multiplication algorithm                  1.0E+00 (U)


  **** **** ******  **  PROGRAM STARTED AT               2023-06-22 14:36:27.726
 ***** ** ***  *** **   PROGRAM STARTED ON                      f0101.nhr.fau.de
 **    ****   ******    PROGRAM STARTED BY                              b165da10
 ***** **    ** ** **   PROGRAM PROCESS ID                               1696686
  **** **  *******  **  PROGRAM STARTED IN /home/atuin/b165da/b165da10/13_WS2/10
                                           x10/1_RI-3_RI_reg_1E-2

 CP2K| version string:                 CP2K version 2023.1 (Development Version)
 CP2K| source code revision number:                                  git:383ec4c
 CP2K| cp2kflags: omp libint fftw3 libxc parallel mpi_f08 scalapack cosma xsmm p
 CP2K|            lumed2 spglib mkl libvdwxc
 CP2K| is freely available from                            https://www.cp2k.org/
 CP2K| Program compiled at                           Fri Feb 3 21:19:19 CET 2023
 CP2K| Program compiled on                                     fritz3.nhr.fau.de
 CP2K| Program compiled for                                                local
 CP2K| Data directory path    /home/atuin/b165da/b165da10/01_CP2K_compilations/0
 CP2K| Input file name                                               GW_WSe2.inp
 
 GLOBAL| Force Environment number                                              1
 GLOBAL| Basis set file name                                        BASIS_MOLOPT
 GLOBAL| Potential file name                                      GTH_POTENTIALS
 GLOBAL| MM Potential file name                                     MM_POTENTIAL
 GLOBAL| Coordinate file name                                      __STD_INPUT__
 GLOBAL| Method name                                                        CP2K
 GLOBAL| Project name                                                       MoS2
 GLOBAL| Run type                                                         ENERGY
 GLOBAL| FFT library                                                       FFTW3
 GLOBAL| Diagonalization library                                       ScaLAPACK
 GLOBAL| DGEMM library                                                      BLAS
 GLOBAL| Orthonormality check for eigenvectors                          DISABLED
 GLOBAL| Matrix multiplication library                                     COSMA
 GLOBAL| All-to-all communication in single precision                          F
 GLOBAL| FFTs using library dependent lengths                                  F
 GLOBAL| Grid backend                                                       AUTO
 GLOBAL| Global print level                                               MEDIUM
 GLOBAL| MPI I/O enabled                                                       T
 GLOBAL| Total number of message passing processes                          1280
 GLOBAL| Number of threads for this process                                    1
 GLOBAL| This output is from process                                           0
 GLOBAL| Stack size for threads created by OpenMP (OMP_STACKSIZE)           500m
 GLOBAL| CPU model name            Intel(R) Xeon(R) Platinum 8360Y CPU @ 2.40GHz
 GLOBAL| CPUID                                                              1003

 MEMORY| system memory details [Kb]
 MEMORY|                        rank 0           min           max       average
 MEMORY| MemTotal            263791312     263791308     263793476     263791588
 MEMORY| MemFree             253719552     247105660     254996752     252293019
 MEMORY| Buffers                  2564           744          3028          2269
 MEMORY| Cached                2952176       2282488       2973244       2930780
 MEMORY| Slab                  1597532        792192       7870768       3180601
 MEMORY| SReclaimable           137388        109820        153900        131907
 MEMORY| MemLikelyFree       256811680     250233612     258056064     255357977


 *** Fundamental physical constants (SI units) ***

 *** Literature: B. J. Mohr and B. N. Taylor,
 ***             CODATA recommended values of the fundamental physical
 ***             constants: 2006, Web Version 5.1
 ***             http://physics.nist.gov/constants

 Speed of light in vacuum [m/s]                             2.99792458000000E+08
 Magnetic constant or permeability of vacuum [N/A**2]       1.25663706143592E-06
 Electric constant or permittivity of vacuum [F/m]          8.85418781762039E-12
 Planck constant (h) [J*s]                                  6.62606896000000E-34
 Planck constant (h-bar) [J*s]                              1.05457162825177E-34
 Elementary charge [C]                                      1.60217648700000E-19
 Electron mass [kg]                                         9.10938215000000E-31
 Electron g factor [ ]                                     -2.00231930436220E+00
 Proton mass [kg]                                           1.67262163700000E-27
 Fine-structure constant                                    7.29735253760000E-03
 Rydberg constant [1/m]                                     1.09737315685270E+07
 Avogadro constant [1/mol]                                  6.02214179000000E+23
 Boltzmann constant [J/K]                                   1.38065040000000E-23
 Atomic mass unit [kg]                                      1.66053878200000E-27
 Bohr radius [m]                                            5.29177208590000E-11

 *** Conversion factors ***

 [u] -> [a.u.]                                              1.82288848426455E+03
 [Angstrom] -> [Bohr] = [a.u.]                              1.88972613288564E+00
 [a.u.] = [Bohr] -> [Angstrom]                              5.29177208590000E-01
 [a.u.] -> [s]                                              2.41888432650478E-17
 [a.u.] -> [fs]                                             2.41888432650478E-02
 [a.u.] -> [J]                                              4.35974393937059E-18
 [a.u.] -> [N]                                              8.23872205491840E-08
 [a.u.] -> [K]                                              3.15774647902944E+05
 [a.u.] -> [kJ/mol]                                         2.62549961709828E+03
 [a.u.] -> [kcal/mol]                                       6.27509468713739E+02
 [a.u.] -> [Pa]                                             2.94210107994716E+13
 [a.u.] -> [bar]                                            2.94210107994716E+08
 [a.u.] -> [atm]                                            2.90362800883016E+08
 [a.u.] -> [eV]                                             2.72113838565563E+01
 [a.u.] -> [Hz]                                             6.57968392072181E+15
 [a.u.] -> [1/cm] (wave numbers)                            2.19474631370540E+05
 [a.u./Bohr**2] -> [1/cm]                                   5.14048714338585E+03
 
 GENERATE|  Preliminary Number of Bonds generated:                             0
 GENERATE|  Achieved consistency in connectivity generation.

 CELL| Volume [angstrom^3]:                                         13185.261000
 CELL| Vector a [angstrom]:      31.860     0.000     0.000   |a| =    31.860000
 CELL| Vector b [angstrom]:     -15.930    27.590     0.000   |b| =    31.858641
 CELL| Vector c [angstrom]:       0.000     0.000    15.000   |c| =    15.000000
 CELL| Angle (b,c), alpha [degree]:                                    90.000000
 CELL| Angle (a,c), beta  [degree]:                                    90.000000
 CELL| Angle (a,b), gamma [degree]:                                   120.001411
 CELL| Numerically orthorhombic:                                              NO
 CELL| Periodicity                                                            XY

 CELL_REF| Volume [angstrom^3]:                                     13185.261000
 CELL_REF| Vector a [angstrom    31.860     0.000     0.000   |a| =    31.860000
 CELL_REF| Vector b [angstrom   -15.930    27.590     0.000   |b| =    31.858641
 CELL_REF| Vector c [angstrom     0.000     0.000    15.000   |c| =    15.000000
 CELL_REF| Angle (b,c), alpha [degree]:                                90.000000
 CELL_REF| Angle (a,c), beta  [degree]:                                90.000000
 CELL_REF| Angle (a,b), gamma [degree]:                               120.001411
 CELL_REF| Numerically orthorhombic:                                          NO
 CELL_REF| Periodicity                                                        XY

 *******************************************************************************
 *******************************************************************************
 **                                                                           **
 **     #####                         ##              ##                      **
 **    ##   ##            ##          ##              ##                      **
 **   ##     ##                       ##            ######                    **
 **   ##     ##  ##   ##  ##   #####  ##  ##   ####   ##    #####    #####    **
 **   ##     ##  ##   ##  ##  ##      ## ##   ##      ##   ##   ##  ##   ##   **
 **   ##  ## ##  ##   ##  ##  ##      ####     ###    ##   ######   ######    **
 **    ##  ###   ##   ##  ##  ##      ## ##      ##   ##   ##       ##        **
 **     #######   #####   ##   #####  ##  ##  ####    ##    #####   ##        **
 **           ##                                                    ##        **
 **                                                                           **
 **                                                ... make the atoms dance   **
 **                                                                           **
 **            Copyright (C) by CP2K developers group (2000-2023)             **
 **                      J. Chem. Phys. 152, 194103 (2020)                    **
 **                                                                           **
 *******************************************************************************

 DFT| Spin restricted Kohn-Sham (RKS) calculation                            RKS
 DFT| Multiplicity                                                             1
 DFT| Number of spin states                                                    1
 DFT| Charge                                                                   0
 DFT| Self-interaction correction (SIC)                                       NO
 DFT| Cutoffs: density                                              1.000000E-10
 DFT|          gradient                                             1.000000E-10
 DFT|          tau                                                  1.000000E-10
 DFT|          cutoff_smoothing_range                               0.000000E+00
 DFT| XC density smoothing                                                  NONE
 DFT| XC derivatives                                                          PW

 FUNCTIONAL| PADE:
 FUNCTIONAL| S. Goedecker, M. Teter and J. Hutter, Phys. Rev. B 54, 1703 (1996) 


 QS| Method:                                                                 GPW
 QS| Density plane wave grid type                        NON-SPHERICAL FULLSPACE
 QS| Number of grid levels:                                                    4
 QS| Density cutoff [a.u.]:                                                250.0
 QS| Multi grid cutoff [a.u.]: 1) grid level                               250.0
 QS|                           2) grid level                                83.3
 QS|                           3) grid level                                27.8
 QS|                           4) grid level                                 9.3
 QS| Grid level progression factor:                                          3.0
 QS| Relative density cutoff [a.u.]:                                        50.0
 QS| Interaction thresholds: eps_pgf_orb:                                1.0E-40
 QS|                         eps_filter_matrix:                          0.0E+00
 QS|                         eps_core_charge:                            1.0E-42
 QS|                         eps_rho_gspace:                             1.0E-40
 QS|                         eps_rho_rspace:                             1.0E-40
 QS|                         eps_gvg_rspace:                             1.0E-20
 QS|                         eps_ppl:                                    1.0E-02
 QS|                         eps_ppnl:                                   1.0E-22


 ATOMIC KIND INFORMATION

  1. Atomic kind: W                                     Number of atoms:     100

     Orbital Basis Set                               TZVP-MOLOPT-SR-GTH_robust_1

       Number of orbital shell sets:                                           1
       Number of orbital shells:                                              11
       Number of primitive Cartesian functions:                                7
       Number of Cartesian basis functions:                                   41
       Number of spherical basis functions:                                   35
       Norm type:                                                              2

       Normalised Cartesian orbitals:

                        Set   Shell   Orbital            Exponent    Coefficient

                          1       1    2s                3.103254       0.432128
                                                         2.893835       0.497697
                                                         1.106151      -0.752121
                                                         0.501100      -0.216922
                                                         0.214447       0.032823
                                                         0.120000      -0.061173
                                                         0.140000       0.053490

                          1       2    3s                3.103254      -0.813729
                                                         2.893835       0.639864
                                                         1.106151       0.039972
                                                         0.501100      -0.059528
                                                         0.214447       0.077002
                                                         0.120000       0.481432
                                                         0.140000      -0.420972

                          1       3    4s                3.103254       1.541003
                                                         2.893835      -0.927602
                                                         1.106151      -0.272969
                                                         0.501100       0.064402
                                                         0.214447      -0.275240
                                                         0.120000       0.981259
                                                         0.140000      -0.858027

                          1       4    5s                3.103254       1.221199
                                                         2.893835      -1.384344
                                                         1.106151       0.313815
                                                         0.501100      -0.289021
                                                         0.214447       0.251699
                                                         0.120000       0.180363
                                                         0.140000      -0.157712

                          1       5    3px               3.103254       6.587488
                                                         2.893835      -5.430631
                                                         1.106151      -0.972560
                                                         0.501100      -0.261614
                                                         0.214447      -0.013936
                                                         0.120000       0.008777
                                                         0.140000      -0.008290
                          1       5    3py               3.103254       6.587488
                                                         2.893835      -5.430631
                                                         1.106151      -0.972560
                                                         0.501100      -0.261614
                                                         0.214447      -0.013936
                                                         0.120000       0.008777
                                                         0.140000      -0.008290
                          1       5    3pz               3.103254       6.587488
                                                         2.893835      -5.430631
                                                         1.106151      -0.972560
                                                         0.501100      -0.261614
                                                         0.214447      -0.013936
                                                         0.120000       0.008777
                                                         0.140000      -0.008290

                          1       6    4px               3.103254      -0.215503
                                                         2.893835       0.319008
                                                         1.106151      -0.250093
                                                         0.501100      -0.016350
                                                         0.214447       0.058331
                                                         0.120000       0.336378
                                                         0.140000      -0.317701
                          1       6    4py               3.103254      -0.215503
                                                         2.893835       0.319008
                                                         1.106151      -0.250093
                                                         0.501100      -0.016350
                                                         0.214447       0.058331
                                                         0.120000       0.336378
                                                         0.140000      -0.317701
                          1       6    4pz               3.103254      -0.215503
                                                         2.893835       0.319008
                                                         1.106151      -0.250093
                                                         0.501100      -0.016350
                                                         0.214447       0.058331
                                                         0.120000       0.336378
                                                         0.140000      -0.317701

                          1       7    5px               3.103254       1.477813
                                                         2.893835      -1.135541
                                                         1.106151       1.380857
                                                         0.501100       0.146858
                                                         0.214447      -0.336829
                                                         0.120000       0.360608
                                                         0.140000      -0.340586
                          1       7    5py               3.103254       1.477813
                                                         2.893835      -1.135541
                                                         1.106151       1.380857
                                                         0.501100       0.146858
                                                         0.214447      -0.336829
                                                         0.120000       0.360608
                                                         0.140000      -0.340586
                          1       7    5pz               3.103254       1.477813
                                                         2.893835      -1.135541
                                                         1.106151       1.380857
                                                         0.501100       0.146858
                                                         0.214447      -0.336829
                                                         0.120000       0.360608
                                                         0.140000      -0.340586

                          1       8    4dx2              3.103254      -0.073730
                                                         2.893835       0.215072
                                                         1.106151       0.648029
                                                         0.501100       0.200612
                                                         0.214447       0.032511
                                                         0.120000       0.039404
                                                         0.140000      -0.040198
                          1       8    4dxy              3.103254      -0.127705
                                                         2.893835       0.372516
                                                         1.106151       1.122419
                                                         0.501100       0.347470
                                                         0.214447       0.056311
                                                         0.120000       0.068250
                                                         0.140000      -0.069626
                          1       8    4dxz              3.103254      -0.127705
                                                         2.893835       0.372516
                                                         1.106151       1.122419
                                                         0.501100       0.347470
                                                         0.214447       0.056311
                                                         0.120000       0.068250
                                                         0.140000      -0.069626
                          1       8    4dy2              3.103254      -0.073730
                                                         2.893835       0.215072
                                                         1.106151       0.648029
                                                         0.501100       0.200612
                                                         0.214447       0.032511
                                                         0.120000       0.039404
                                                         0.140000      -0.040198
                          1       8    4dyz              3.103254      -0.127705
                                                         2.893835       0.372516
                                                         1.106151       1.122419
                                                         0.501100       0.347470
                                                         0.214447       0.056311
                                                         0.120000       0.068250
                                                         0.140000      -0.069626
                          1       8    4dz2              3.103254      -0.073730
                                                         2.893835       0.215072
                                                         1.106151       0.648029
                                                         0.501100       0.200612
                                                         0.214447       0.032511
                                                         0.120000       0.039404
                                                         0.140000      -0.040198

                          1       9    5dx2              3.103254       0.120212
                                                         2.893835      -0.247034
                                                         1.106151      -0.585668
                                                         0.501100      -0.200109
                                                         0.214447       0.050368
                                                         0.120000       0.106563
                                                         0.140000      -0.108711
                          1       9    5dxy              3.103254       0.208214
                                                         2.893835      -0.427875
                                                         1.106151      -1.014406
                                                         0.501100      -0.346599
                                                         0.214447       0.087239
                                                         0.120000       0.184573
                                                         0.140000      -0.188293
                          1       9    5dxz              3.103254       0.208214
                                                         2.893835      -0.427875
                                                         1.106151      -1.014406
                                                         0.501100      -0.346599
                                                         0.214447       0.087239
                                                         0.120000       0.184573
                                                         0.140000      -0.188293
                          1       9    5dy2              3.103254       0.120212
                                                         2.893835      -0.247034
                                                         1.106151      -0.585668
                                                         0.501100      -0.200109
                                                         0.214447       0.050368
                                                         0.120000       0.106563
                                                         0.140000      -0.108711
                          1       9    5dyz              3.103254       0.208214
                                                         2.893835      -0.427875
                                                         1.106151      -1.014406
                                                         0.501100      -0.346599
                                                         0.214447       0.087239
                                                         0.120000       0.184573
                                                         0.140000      -0.188293
                          1       9    5dz2              3.103254       0.120212
                                                         2.893835      -0.247034
                                                         1.106151      -0.585668
                                                         0.501100      -0.200109
                                                         0.214447       0.050368
                                                         0.120000       0.106563
                                                         0.140000      -0.108711

                          1      10    6dx2              3.103254      10.228451
                                                         2.893835     -10.154808
                                                         1.106151       0.833144
                                                         0.501100      -0.004804
                                                         0.214447      -0.129172
                                                         0.120000       0.182950
                                                         0.140000      -0.186637
                          1      10    6dxy              3.103254      17.716196
                                                         2.893835     -17.588644
                                                         1.106151       1.443047
                                                         0.501100      -0.008321
                                                         0.214447      -0.223732
                                                         0.120000       0.316879
                                                         0.140000      -0.323264
                          1      10    6dxz              3.103254      17.716196
                                                         2.893835     -17.588644
                                                         1.106151       1.443047
                                                         0.501100      -0.008321
                                                         0.214447      -0.223732
                                                         0.120000       0.316879
                                                         0.140000      -0.323264
                          1      10    6dy2              3.103254      10.228451
                                                         2.893835     -10.154808
                                                         1.106151       0.833144
                                                         0.501100      -0.004804
                                                         0.214447      -0.129172
                                                         0.120000       0.182950
                                                         0.140000      -0.186637
                          1      10    6dyz              3.103254      17.716196
                                                         2.893835     -17.588644
                                                         1.106151       1.443047
                                                         0.501100      -0.008321
                                                         0.214447      -0.223732
                                                         0.120000       0.316879
                                                         0.140000      -0.323264
                          1      10    6dz2              3.103254      10.228451
                                                         2.893835     -10.154808
                                                         1.106151       0.833144
                                                         0.501100      -0.004804
                                                         0.214447      -0.129172
                                                         0.120000       0.182950
                                                         0.140000      -0.186637

                          1      11    5fx3              3.103254      -2.200951
                                                         2.893835       2.432659
                                                         1.106151      -0.371072
                                                         0.501100      -0.177479
                                                         0.214447      -0.017113
                                                         0.120000      -0.003108
                                                         0.140000       0.003424
                          1      11    5fx2y             3.103254      -4.921477
                                                         2.893835       5.439590
                                                         1.106151      -0.829742
                                                         0.501100      -0.396854
                                                         0.214447      -0.038265
                                                         0.120000      -0.006949
                                                         0.140000       0.007657
                          1      11    5fx2z             3.103254      -4.921477
                                                         2.893835       5.439590
                                                         1.106151      -0.829742
                                                         0.501100      -0.396854
                                                         0.214447      -0.038265
                                                         0.120000      -0.006949
                                                         0.140000       0.007657
                          1      11    5fxy2             3.103254      -4.921477
                                                         2.893835       5.439590
                                                         1.106151      -0.829742
                                                         0.501100      -0.396854
                                                         0.214447      -0.038265
                                                         0.120000      -0.006949
                                                         0.140000       0.007657
                          1      11    5fxyz             3.103254      -8.524248
                                                         2.893835       9.421647
                                                         1.106151      -1.437155
                                                         0.501100      -0.687372
                                                         0.214447      -0.066277
                                                         0.120000      -0.012036
                                                         0.140000       0.013263
                          1      11    5fxz2             3.103254      -4.921477
                                                         2.893835       5.439590
                                                         1.106151      -0.829742
                                                         0.501100      -0.396854
                                                         0.214447      -0.038265
                                                         0.120000      -0.006949
                                                         0.140000       0.007657
                          1      11    5fy3              3.103254      -2.200951
                                                         2.893835       2.432659
                                                         1.106151      -0.371072
                                                         0.501100      -0.177479
                                                         0.214447      -0.017113
                                                         0.120000      -0.003108
                                                         0.140000       0.003424
                          1      11    5fy2z             3.103254      -4.921477
                                                         2.893835       5.439590
                                                         1.106151      -0.829742
                                                         0.501100      -0.396854
                                                         0.214447      -0.038265
                                                         0.120000      -0.006949
                                                         0.140000       0.007657
                          1      11    5fyz2             3.103254      -4.921477
                                                         2.893835       5.439590
                                                         1.106151      -0.829742
                                                         0.501100      -0.396854
                                                         0.214447      -0.038265
                                                         0.120000      -0.006949
                                                         0.140000       0.007657
                          1      11    5fz3              3.103254      -2.200951
                                                         2.893835       2.432659
                                                         1.106151      -0.371072
                                                         0.501100      -0.177479
                                                         0.214447      -0.017113
                                                         0.120000      -0.003108
                                                         0.140000       0.003424

     RI Auxiliary Basis Set                                 def2-SVP-RIFIT-mod-3

       Number of orbital shell sets:                                          16
       Number of orbital shells:                                              16
       Number of primitive Cartesian functions:                               16
       Number of Cartesian basis functions:                                   88
       Number of spherical basis functions:                                   66
       Norm type:                                                              2

       Normalised Cartesian orbitals:

                        Set   Shell   Orbital            Exponent    Coefficient

                          1       1    1s                0.238675       0.243369

                          2       1    1fx3              0.253216       0.066959
                          2       1    1fx2y             0.253216       0.149725
                          2       1    1fx2z             0.253216       0.149725
                          2       1    1fxy2             0.253216       0.149725
                          2       1    1fxyz             0.253216       0.259331
                          2       1    1fxz2             0.253216       0.149725
                          2       1    1fy3              0.253216       0.066959
                          2       1    1fy2z             0.253216       0.149725
                          2       1    1fyz2             0.253216       0.149725
                          2       1    1fz3              0.253216       0.066959

                          3       1    1px               0.269126       0.276302
                          3       1    1py               0.269126       0.276302
                          3       1    1pz               0.269126       0.276302

                          4       1    1dx2              0.304026       0.204882
                          4       1    1dxy              0.304026       0.354866
                          4       1    1dxz              0.304026       0.354866
                          4       1    1dy2              0.304026       0.204882
                          4       1    1dyz              0.304026       0.354866
                          4       1    1dz2              0.304026       0.204882

                          5       1    1gx4              0.365033       0.069638
                          5       1    1gx3y             0.365033       0.184246
                          5       1    1gx3z             0.365033       0.184246
                          5       1    1gx2y2            0.365033       0.237860
                          5       1    1gx2yz            0.365033       0.411986
                          5       1    1gx2z2            0.365033       0.237860
                          5       1    1gxy3             0.365033       0.184246
                          5       1    1gxy2z            0.365033       0.411986
                          5       1    1gxyz2            0.365033       0.411986
                          5       1    1gxz3             0.365033       0.184246
                          5       1    1gy4              0.365033       0.069638
                          5       1    1gy3z             0.365033       0.184246
                          5       1    1gy2z2            0.365033       0.237860
                          5       1    1gyz3             0.365033       0.184246
                          5       1    1gz4              0.365033       0.069638

                          6       1    1s                0.424638       0.374908

                          7       1    1s                0.648984       0.515330

                          8       1    1dx2              0.719090       0.924230
                          8       1    1dxy              0.719090       1.600814
                          8       1    1dxz              0.719090       1.600814
                          8       1    1dy2              0.719090       0.924230
                          8       1    1dyz              0.719090       1.600814
                          8       1    1dz2              0.719090       0.924230

                          9       1    1gx4              0.914481       0.870294
                          9       1    1gx3y             0.914481       2.302581
                          9       1    1gx3z             0.914481       2.302581
                          9       1    1gx2y2            0.914481       2.972619
                          9       1    1gx2yz            0.914481       5.148727
                          9       1    1gx2z2            0.914481       2.972619
                          9       1    1gxy3             0.914481       2.302581
                          9       1    1gxy2z            0.914481       5.148727
                          9       1    1gxyz2            0.914481       5.148727
                          9       1    1gxz3             0.914481       2.302581
                          9       1    1gy4              0.914481       0.870294
                          9       1    1gy3z             0.914481       2.302581
                          9       1    1gy2z2            0.914481       2.972619
                          9       1    1gyz3             0.914481       2.302581
                          9       1    1gz4              0.914481       0.870294

                         10       1    1px               0.967490       1.367723
                         10       1    1py               0.967490       1.367723
                         10       1    1pz               0.967490       1.367723

                         11       1    1dx2              1.179750       2.198072
                         11       1    1dxy              1.179750       3.807173
                         11       1    1dxz              1.179750       3.807173
                         11       1    1dy2              1.179750       2.198072
                         11       1    1dyz              1.179750       3.807173
                         11       1    1dz2              1.179750       2.198072

                         12       1    1fx3              1.281070       2.570357
                         12       1    1fx2y             1.281070       5.747492
                         12       1    1fx2z             1.281070       5.747492
                         12       1    1fxy2             1.281070       5.747492
                         12       1    1fxyz             1.281070       9.954948
                         12       1    1fxz2             1.281070       5.747492
                         12       1    1fy3              1.281070       2.570357
                         12       1    1fy2z             1.281070       5.747492
                         12       1    1fyz2             1.281070       5.747492
                         12       1    1fz3              1.281070       2.570357

                         13       1    1s                1.466370       0.949714

                         14       1    1px               1.939290       3.262072
                         14       1    1py               1.939290       3.262072
                         14       1    1pz               1.939290       3.262072

                         15       1    1s                2.101910       1.244144

                         16       1    1dx2              2.484170       8.090526
                         16       1    1dxy              2.484170      14.013202
                         16       1    1dxz              2.484170      14.013202
                         16       1    1dy2              2.484170       8.090526
                         16       1    1dyz              2.484170      14.013202
                         16       1    1dz2              2.484170       8.090526

       Atomic covalent radius [Angstrom]:                                  1.300

       Atomic van der Waals radius [Angstrom]:                             1.670

     GTH Potential information for                                  GTH-PADE-q14

       Description:                       Goedecker-Teter-Hutter pseudopotential
                                           Goedecker et al., PRB 54, 1703 (1996)
                                          Hartwigsen et al., PRB 58, 3641 (1998)
                                                      Krack, TCA 114, 145 (2005)

       Gaussian exponent of the core charge distribution:               1.714678
       Electronic configuration (s p d ...):                           4   6   4

       Parameters of the local part of the GTH pseudopotential:

                          rloc        C1          C2          C3          C4
                        0.540000    4.800251    0.901544

       Parameters of the non-local part of the GTH pseudopotential:

                   l      r(l)      h(i,j,l)

                   0    0.418570    2.692204    2.332557    0.297239
                                    2.332557   -6.022638   -0.767467
                                    0.297239   -0.767467    1.218316
                   1    0.449555   -0.702084    1.036024
                                    1.036024   -2.451680
                   2    0.399602    1.177436    2.448917
                                    2.448917   -5.553621

  2. Atomic kind: S                                     Number of atoms:     200

     Orbital Basis Set                                  TZVP-MOLOPT-GTH_robust_9

       Number of orbital shell sets:                                           1
       Number of orbital shells:                                               7
       Number of primitive Cartesian functions:                                7
       Number of Cartesian basis functions:                                   18
       Number of spherical basis functions:                                   17
       Norm type:                                                              2

       Normalised Cartesian orbitals:

                        Set   Shell   Orbital            Exponent    Coefficient

                          1       1    2s                3.817591       0.157267
                                                         2.362752      -0.510091
                                                         0.861004      -0.067546
                                                         0.417525       0.341513
                                                         0.181514       0.065074
                                                         0.120000       0.001196
                                                         0.140000      -0.001073

                          1       2    3s                3.817591      -0.191568
                                                         2.362752       0.523701
                                                         0.861004       0.282710
                                                         0.417525      -0.587888
                                                         0.181514       0.178884
                                                         0.120000       0.543819
                                                         0.140000      -0.487887

                          1       3    4s                3.817591      -0.991151
                                                         2.362752       1.865280
                                                         0.861004       0.135387
                                                         0.417525      -0.133451
                                                         0.181514       0.078400
                                                         0.120000      -0.405526
                                                         0.140000       0.363817

                          1       4    3px               3.817591      -0.172566
                                                         2.362752      -0.175790
                                                         0.861004       0.224449
                                                         0.417525       0.286658
                                                         0.181514       0.049751
                                                         0.120000       0.014921
                                                         0.140000      -0.014459
                          1       4    3py               3.817591      -0.172566
                                                         2.362752      -0.175790
                                                         0.861004       0.224449
                                                         0.417525       0.286658
                                                         0.181514       0.049751
                                                         0.120000       0.014921
                                                         0.140000      -0.014459
                          1       4    3pz               3.817591      -0.172566
                                                         2.362752      -0.175790
                                                         0.861004       0.224449
                                                         0.417525       0.286658
                                                         0.181514       0.049751
                                                         0.120000       0.014921
                                                         0.140000      -0.014459

                          1       5    4px               3.817591       0.010507
                                                         2.362752       0.217406
                                                         0.861004      -0.162395
                                                         0.417525      -0.206857
                                                         0.181514       0.107046
                                                         0.120000       0.290385
                                                         0.140000      -0.281393
                          1       5    4py               3.817591       0.010507
                                                         2.362752       0.217406
                                                         0.861004      -0.162395
                                                         0.417525      -0.206857
                                                         0.181514       0.107046
                                                         0.120000       0.290385
                                                         0.140000      -0.281393
                          1       5    4pz               3.817591       0.010507
                                                         2.362752       0.217406
                                                         0.861004      -0.162395
                                                         0.417525      -0.206857
                                                         0.181514       0.107046
                                                         0.120000       0.290385
                                                         0.140000      -0.281393

                          1       6    5px               3.817591      -0.947232
                                                         2.362752       1.731661
                                                         0.861004      -1.484366
                                                         0.417525       0.775915
                                                         0.181514       0.065997
                                                         0.120000      -0.317574
                                                         0.140000       0.307740
                          1       6    5py               3.817591      -0.947232
                                                         2.362752       1.731661
                                                         0.861004      -1.484366
                                                         0.417525       0.775915
                                                         0.181514       0.065997
                                                         0.120000      -0.317574
                                                         0.140000       0.307740
                          1       6    5pz               3.817591      -0.947232
                                                         2.362752       1.731661
                                                         0.861004      -1.484366
                                                         0.417525       0.775915
                                                         0.181514       0.065997
                                                         0.120000      -0.317574
                                                         0.140000       0.307740

                          1       7    4dx2              3.817591       0.133441
                                                         2.362752       0.805146
                                                         0.861004       0.452959
                                                         0.417525       0.174839
                                                         0.181514       0.017641
                                                         0.120000      -0.004028
                                                         0.140000       0.004216
                          1       7    4dxy              3.817591       0.231126
                                                         2.362752       1.394554
                                                         0.861004       0.784547
                                                         0.417525       0.302830
                                                         0.181514       0.030555
                                                         0.120000      -0.006976
                                                         0.140000       0.007302
                          1       7    4dxz              3.817591       0.231126
                                                         2.362752       1.394554
                                                         0.861004       0.784547
                                                         0.417525       0.302830
                                                         0.181514       0.030555
                                                         0.120000      -0.006976
                                                         0.140000       0.007302
                          1       7    4dy2              3.817591       0.133441
                                                         2.362752       0.805146
                                                         0.861004       0.452959
                                                         0.417525       0.174839
                                                         0.181514       0.017641
                                                         0.120000      -0.004028
                                                         0.140000       0.004216
                          1       7    4dyz              3.817591       0.231126
                                                         2.362752       1.394554
                                                         0.861004       0.784547
                                                         0.417525       0.302830
                                                         0.181514       0.030555
                                                         0.120000      -0.006976
                                                         0.140000       0.007302
                          1       7    4dz2              3.817591       0.133441
                                                         2.362752       0.805146
                                                         0.861004       0.452959
                                                         0.417525       0.174839
                                                         0.181514       0.017641
                                                         0.120000      -0.004028
                                                         0.140000       0.004216

     RI Auxiliary Basis Set                                 def2-SVP-RIFIT-mod-1

       Number of orbital shell sets:                                          13
       Number of orbital shells:                                              13
       Number of primitive Cartesian functions:                               13
       Number of Cartesian basis functions:                                   54
       Number of spherical basis functions:                                   45
       Norm type:                                                              2

       Normalised Cartesian orbitals:

                        Set   Shell   Orbital            Exponent    Coefficient

                          1       1    1s                0.197811       0.211396

                          2       1    1dx2              0.242242       0.137672
                          2       1    1dxy              0.242242       0.238455
                          2       1    1dxz              0.242242       0.238455
                          2       1    1dy2              0.242242       0.137672
                          2       1    1dyz              0.242242       0.238455
                          2       1    1dz2              0.242242       0.137672

                          3       1    1px               0.324549       0.349172
                          3       1    1py               0.324549       0.349172
                          3       1    1pz               0.324549       0.349172

                          4       1    1s                0.389135       0.351144

                          5       1    1fx3              0.529340       0.351850
                          5       1    1fx2y             0.529340       0.786760
                          5       1    1fx2z             0.529340       0.786760
                          5       1    1fxy2             0.529340       0.786760
                          5       1    1fxyz             0.529340       1.362708
                          5       1    1fxz2             0.529340       0.786760
                          5       1    1fy3              0.529340       0.351850
                          5       1    1fy2z             0.529340       0.786760
                          5       1    1fyz2             0.529340       0.786760
                          5       1    1fz3              0.529340       0.351850

                          6       1    1dx2              0.603367       0.679871
                          6       1    1dxy              0.603367       1.177572
                          6       1    1dxz              0.603367       1.177572
                          6       1    1dy2              0.603367       0.679871
                          6       1    1dyz              0.603367       1.177572
                          6       1    1dz2              0.603367       0.679871

                          7       1    1px               0.631252       0.802035
                          7       1    1py               0.631252       0.802035
                          7       1    1pz               0.631252       0.802035

                          8       1    1s                0.936032       0.678232

                          9       1    1dx2              1.115385       1.992520
                          9       1    1dxy              1.115385       3.451146
                          9       1    1dxz              1.115385       3.451146
                          9       1    1dy2              1.115385       1.992520
                          9       1    1dyz              1.115385       3.451146
                          9       1    1dz2              1.115385       1.992520

                         10       1    1fx3              1.132321       1.947088
                         10       1    1fx2y             1.132321       4.353822
                         10       1    1fx2z             1.132321       4.353822
                         10       1    1fxy2             1.132321       4.353822
                         10       1    1fxyz             1.132321       7.541040
                         10       1    1fxz2             1.132321       4.353822
                         10       1    1fy3              1.132321       1.947088
                         10       1    1fy2z             1.132321       4.353822
                         10       1    1fyz2             1.132321       4.353822
                         10       1    1fz3              1.132321       1.947088

                         11       1    1px               1.173306       1.740620
                         11       1    1py               1.173306       1.740620
                         11       1    1pz               1.173306       1.740620

                         12       1    1s                2.064006       1.227279

                         13       1    1px               2.625789       4.764474
                         13       1    1py               2.625789       4.764474
                         13       1    1pz               2.625789       4.764474

       Atomic covalent radius [Angstrom]:                                  1.020

       Atomic van der Waals radius [Angstrom]:                             1.800

     GTH Potential information for                                   GTH-PADE-q6

       Description:                       Goedecker-Teter-Hutter pseudopotential
                                           Goedecker et al., PRB 54, 1703 (1996)
                                          Hartwigsen et al., PRB 58, 3641 (1998)
                                                      Krack, TCA 114, 145 (2005)

       Gaussian exponent of the core charge distribution:               2.834467
       Electronic configuration (s p d ...):                               2   4

       Parameters of the local part of the GTH pseudopotential:

                          rloc        C1          C2          C3          C4
                        0.420000   -6.554492

       Parameters of the non-local part of the GTH pseudopotential:

                   l      r(l)      h(i,j,l)

                   0    0.361757    7.905303   -1.731881
                                   -1.731881    4.471698
                   1    0.405285    3.866579


 MOLECULE KIND INFORMATION


 All atoms are their own molecule, skipping detailed information


 TOTAL NUMBERS AND MAXIMUM NUMBERS

  Total number of            - Atomic kinds:                                   2
                             - Atoms:                                        300
                             - Shell sets:                                   300
                             - Shells:                                      2500
                             - Primitive Cartesian functions:               2100
                             - Cartesian basis functions:                   7700
                             - Spherical basis functions:                   6900

  Maximum angular momentum of- Orbital basis functions:                        3
                             - Local part of the GTH pseudopotential:          2
                             - Non-local part of the GTH pseudopotential:      4


 MODULE QUICKSTEP: ATOMIC COORDINATES IN ANGSTROM

   Atom Kind Element         X             Y             Z       Z(eff)     Mass
      1    1 W    74      0.000000      0.000000      7.072797  14.0000 183.8400
      2    2 S    16      1.592973      0.919703      8.645595   6.0000  32.0650
      3    2 S    16      1.592973      0.919703      5.500000   6.0000  32.0650
      4    1 W    74      3.186000      0.000000      7.072797  14.0000 183.8400
      5    2 S    16      4.778973      0.919703      8.645595   6.0000  32.0650
      6    2 S    16      4.778973      0.919703      5.500000   6.0000  32.0650
      7    1 W    74      6.372000      0.000000      7.072797  14.0000 183.8400
      8    2 S    16      7.964973      0.919703      8.645595   6.0000  32.0650
      9    2 S    16      7.964973      0.919703      5.500000   6.0000  32.0650
     10    1 W    74      9.558000      0.000000      7.072797  14.0000 183.8400
     11    2 S    16     11.150973      0.919703      8.645595   6.0000  32.0650
     12    2 S    16     11.150973      0.919703      5.500000   6.0000  32.0650
     13    1 W    74     12.744000      0.000000      7.072797  14.0000 183.8400
     14    2 S    16     14.336973      0.919703      8.645595   6.0000  32.0650
     15    2 S    16     14.336973      0.919703      5.500000   6.0000  32.0650
     16    1 W    74     15.930000      0.000000      7.072797  14.0000 183.8400
     17    2 S    16     17.522973      0.919703      8.645595   6.0000  32.0650
     18    2 S    16     17.522973      0.919703      5.500000   6.0000  32.0650
     19    1 W    74     19.116000      0.000000      7.072797  14.0000 183.8400
     20    2 S    16     20.708973      0.919703      8.645595   6.0000  32.0650
     21    2 S    16     20.708973      0.919703      5.500000   6.0000  32.0650
     22    1 W    74     22.302000      0.000000      7.072797  14.0000 183.8400
     23    2 S    16     23.894973      0.919703      8.645595   6.0000  32.0650
     24    2 S    16     23.894973      0.919703      5.500000   6.0000  32.0650
     25    1 W    74     25.488000      0.000000      7.072797  14.0000 183.8400
     26    2 S    16     27.080973      0.919703      8.645595   6.0000  32.0650
     27    2 S    16     27.080973      0.919703      5.500000   6.0000  32.0650
     28    1 W    74     28.674000      0.000000      7.072797  14.0000 183.8400
     29    2 S    16     30.266973      0.919703      8.645595   6.0000  32.0650
     30    2 S    16     30.266973      0.919703      5.500000   6.0000  32.0650
     31    1 W    74     -1.593000      2.759000      7.072797  14.0000 183.8400
     32    2 S    16     -0.000027      3.678703      8.645595   6.0000  32.0650
     33    2 S    16     -0.000027      3.678703      5.500000   6.0000  32.0650
     34    1 W    74      1.593000      2.759000      7.072797  14.0000 183.8400
     35    2 S    16      3.185973      3.678703      8.645595   6.0000  32.0650
     36    2 S    16      3.185973      3.678703      5.500000   6.0000  32.0650
     37    1 W    74      4.779000      2.759000      7.072797  14.0000 183.8400
     38    2 S    16      6.371973      3.678703      8.645595   6.0000  32.0650
     39    2 S    16      6.371973      3.678703      5.500000   6.0000  32.0650
     40    1 W    74      7.965000      2.759000      7.072797  14.0000 183.8400
     41    2 S    16      9.557973      3.678703      8.645595   6.0000  32.0650
     42    2 S    16      9.557973      3.678703      5.500000   6.0000  32.0650
     43    1 W    74     11.151000      2.759000      7.072797  14.0000 183.8400
     44    2 S    16     12.743973      3.678703      8.645595   6.0000  32.0650
     45    2 S    16     12.743973      3.678703      5.500000   6.0000  32.0650
     46    1 W    74     14.337000      2.759000      7.072797  14.0000 183.8400
     47    2 S    16     15.929973      3.678703      8.645595   6.0000  32.0650
     48    2 S    16     15.929973      3.678703      5.500000   6.0000  32.0650
     49    1 W    74     17.523000      2.759000      7.072797  14.0000 183.8400
     50    2 S    16     19.115973      3.678703      8.645595   6.0000  32.0650
     51    2 S    16     19.115973      3.678703      5.500000   6.0000  32.0650
     52    1 W    74     20.709000      2.759000      7.072797  14.0000 183.8400
     53    2 S    16     22.301973      3.678703      8.645595   6.0000  32.0650
     54    2 S    16     22.301973      3.678703      5.500000   6.0000  32.0650
     55    1 W    74     23.895000      2.759000      7.072797  14.0000 183.8400
     56    2 S    16     25.487973      3.678703      8.645595   6.0000  32.0650
     57    2 S    16     25.487973      3.678703      5.500000   6.0000  32.0650
     58    1 W    74     27.081000      2.759000      7.072797  14.0000 183.8400
     59    2 S    16     28.673973      3.678703      8.645595   6.0000  32.0650
     60    2 S    16     28.673973      3.678703      5.500000   6.0000  32.0650
     61    1 W    74     -3.186000      5.518000      7.072797  14.0000 183.8400
     62    2 S    16     -1.593027      6.437703      8.645595   6.0000  32.0650
     63    2 S    16     -1.593027      6.437703      5.500000   6.0000  32.0650
     64    1 W    74      0.000000      5.518000      7.072797  14.0000 183.8400
     65    2 S    16      1.592973      6.437703      8.645595   6.0000  32.0650
     66    2 S    16      1.592973      6.437703      5.500000   6.0000  32.0650
     67    1 W    74      3.186000      5.518000      7.072797  14.0000 183.8400
     68    2 S    16      4.778973      6.437703      8.645595   6.0000  32.0650
     69    2 S    16      4.778973      6.437703      5.500000   6.0000  32.0650
     70    1 W    74      6.372000      5.518000      7.072797  14.0000 183.8400
     71    2 S    16      7.964973      6.437703      8.645595   6.0000  32.0650
     72    2 S    16      7.964973      6.437703      5.500000   6.0000  32.0650
     73    1 W    74      9.558000      5.518000      7.072797  14.0000 183.8400
     74    2 S    16     11.150973      6.437703      8.645595   6.0000  32.0650
     75    2 S    16     11.150973      6.437703      5.500000   6.0000  32.0650
     76    1 W    74     12.744000      5.518000      7.072797  14.0000 183.8400
     77    2 S    16     14.336973      6.437703      8.645595   6.0000  32.0650
     78    2 S    16     14.336973      6.437703      5.500000   6.0000  32.0650
     79    1 W    74     15.930000      5.518000      7.072797  14.0000 183.8400
     80    2 S    16     17.522973      6.437703      8.645595   6.0000  32.0650
     81    2 S    16     17.522973      6.437703      5.500000   6.0000  32.0650
     82    1 W    74     19.116000      5.518000      7.072797  14.0000 183.8400
     83    2 S    16     20.708973      6.437703      8.645595   6.0000  32.0650
     84    2 S    16     20.708973      6.437703      5.500000   6.0000  32.0650
     85    1 W    74     22.302000      5.518000      7.072797  14.0000 183.8400
     86    2 S    16     23.894973      6.437703      8.645595   6.0000  32.0650
     87    2 S    16     23.894973      6.437703      5.500000   6.0000  32.0650
     88    1 W    74     25.488000      5.518000      7.072797  14.0000 183.8400
     89    2 S    16     27.080973      6.437703      8.645595   6.0000  32.0650
     90    2 S    16     27.080973      6.437703      5.500000   6.0000  32.0650
     91    1 W    74     -4.779000      8.277000      7.072797  14.0000 183.8400
     92    2 S    16     -3.186027      9.196703      8.645595   6.0000  32.0650
     93    2 S    16     -3.186027      9.196703      5.500000   6.0000  32.0650
     94    1 W    74     -1.593000      8.277000      7.072797  14.0000 183.8400
     95    2 S    16     -0.000027      9.196703      8.645595   6.0000  32.0650
     96    2 S    16     -0.000027      9.196703      5.500000   6.0000  32.0650
     97    1 W    74      1.593000      8.277000      7.072797  14.0000 183.8400
     98    2 S    16      3.185973      9.196703      8.645595   6.0000  32.0650
     99    2 S    16      3.185973      9.196703      5.500000   6.0000  32.0650
    100    1 W    74      4.779000      8.277000      7.072797  14.0000 183.8400
    101    2 S    16      6.371973      9.196703      8.645595   6.0000  32.0650
    102    2 S    16      6.371973      9.196703      5.500000   6.0000  32.0650
    103    1 W    74      7.965000      8.277000      7.072797  14.0000 183.8400
    104    2 S    16      9.557973      9.196703      8.645595   6.0000  32.0650
    105    2 S    16      9.557973      9.196703      5.500000   6.0000  32.0650
    106    1 W    74     11.151000      8.277000      7.072797  14.0000 183.8400
    107    2 S    16     12.743973      9.196703      8.645595   6.0000  32.0650
    108    2 S    16     12.743973      9.196703      5.500000   6.0000  32.0650
    109    1 W    74     14.337000      8.277000      7.072797  14.0000 183.8400
    110    2 S    16     15.929973      9.196703      8.645595   6.0000  32.0650
    111    2 S    16     15.929973      9.196703      5.500000   6.0000  32.0650
    112    1 W    74     17.523000      8.277000      7.072797  14.0000 183.8400
    113    2 S    16     19.115973      9.196703      8.645595   6.0000  32.0650
    114    2 S    16     19.115973      9.196703      5.500000   6.0000  32.0650
    115    1 W    74     20.709000      8.277000      7.072797  14.0000 183.8400
    116    2 S    16     22.301973      9.196703      8.645595   6.0000  32.0650
    117    2 S    16     22.301973      9.196703      5.500000   6.0000  32.0650
    118    1 W    74     23.895000      8.277000      7.072797  14.0000 183.8400
    119    2 S    16     25.487973      9.196703      8.645595   6.0000  32.0650
    120    2 S    16     25.487973      9.196703      5.500000   6.0000  32.0650
    121    1 W    74     -6.372000     11.036000      7.072797  14.0000 183.8400
    122    2 S    16     -4.779027     11.955703      8.645595   6.0000  32.0650
    123    2 S    16     -4.779027     11.955703      5.500000   6.0000  32.0650
    124    1 W    74     -3.186000     11.036000      7.072797  14.0000 183.8400
    125    2 S    16     -1.593027     11.955703      8.645595   6.0000  32.0650
    126    2 S    16     -1.593027     11.955703      5.500000   6.0000  32.0650
    127    1 W    74      0.000000     11.036000      7.072797  14.0000 183.8400
    128    2 S    16      1.592973     11.955703      8.645595   6.0000  32.0650
    129    2 S    16      1.592973     11.955703      5.500000   6.0000  32.0650
    130    1 W    74      3.186000     11.036000      7.072797  14.0000 183.8400
    131    2 S    16      4.778973     11.955703      8.645595   6.0000  32.0650
    132    2 S    16      4.778973     11.955703      5.500000   6.0000  32.0650
    133    1 W    74      6.372000     11.036000      7.072797  14.0000 183.8400
    134    2 S    16      7.964973     11.955703      8.645595   6.0000  32.0650
    135    2 S    16      7.964973     11.955703      5.500000   6.0000  32.0650
    136    1 W    74      9.558000     11.036000      7.072797  14.0000 183.8400
    137    2 S    16     11.150973     11.955703      8.645595   6.0000  32.0650
    138    2 S    16     11.150973     11.955703      5.500000   6.0000  32.0650
    139    1 W    74     12.744000     11.036000      7.072797  14.0000 183.8400
    140    2 S    16     14.336973     11.955703      8.645595   6.0000  32.0650
    141    2 S    16     14.336973     11.955703      5.500000   6.0000  32.0650
    142    1 W    74     15.930000     11.036000      7.072797  14.0000 183.8400
    143    2 S    16     17.522973     11.955703      8.645595   6.0000  32.0650
    144    2 S    16     17.522973     11.955703      5.500000   6.0000  32.0650
    145    1 W    74     19.116000     11.036000      7.072797  14.0000 183.8400
    146    2 S    16     20.708973     11.955703      8.645595   6.0000  32.0650
    147    2 S    16     20.708973     11.955703      5.500000   6.0000  32.0650
    148    1 W    74     22.302000     11.036000      7.072797  14.0000 183.8400
    149    2 S    16     23.894973     11.955703      8.645595   6.0000  32.0650
    150    2 S    16     23.894973     11.955703      5.500000   6.0000  32.0650
    151    1 W    74     -7.965000     13.795000      7.072797  14.0000 183.8400
    152    2 S    16     -6.372027     14.714703      8.645595   6.0000  32.0650
    153    2 S    16     -6.372027     14.714703      5.500000   6.0000  32.0650
    154    1 W    74     -4.779000     13.795000      7.072797  14.0000 183.8400
    155    2 S    16     -3.186027     14.714703      8.645595   6.0000  32.0650
    156    2 S    16     -3.186027     14.714703      5.500000   6.0000  32.0650
    157    1 W    74     -1.593000     13.795000      7.072797  14.0000 183.8400
    158    2 S    16     -0.000027     14.714703      8.645595   6.0000  32.0650
    159    2 S    16     -0.000027     14.714703      5.500000   6.0000  32.0650
    160    1 W    74      1.593000     13.795000      7.072797  14.0000 183.8400
    161    2 S    16      3.185973     14.714703      8.645595   6.0000  32.0650
    162    2 S    16      3.185973     14.714703      5.500000   6.0000  32.0650
    163    1 W    74      4.779000     13.795000      7.072797  14.0000 183.8400
    164    2 S    16      6.371973     14.714703      8.645595   6.0000  32.0650
    165    2 S    16      6.371973     14.714703      5.500000   6.0000  32.0650
    166    1 W    74      7.965000     13.795000      7.072797  14.0000 183.8400
    167    2 S    16      9.557973     14.714703      8.645595   6.0000  32.0650
    168    2 S    16      9.557973     14.714703      5.500000   6.0000  32.0650
    169    1 W    74     11.151000     13.795000      7.072797  14.0000 183.8400
    170    2 S    16     12.743973     14.714703      8.645595   6.0000  32.0650
    171    2 S    16     12.743973     14.714703      5.500000   6.0000  32.0650
    172    1 W    74     14.337000     13.795000      7.072797  14.0000 183.8400
    173    2 S    16     15.929973     14.714703      8.645595   6.0000  32.0650
    174    2 S    16     15.929973     14.714703      5.500000   6.0000  32.0650
    175    1 W    74     17.523000     13.795000      7.072797  14.0000 183.8400
    176    2 S    16     19.115973     14.714703      8.645595   6.0000  32.0650
    177    2 S    16     19.115973     14.714703      5.500000   6.0000  32.0650
[...]
 # max total images/rank                        5
 # max 3D layers                                1
 # MPI messages exchanged                14586880
 MPI messages size (bytes):
  total size                         2.644031E+12
  min size                           0.000000E+00
  max size                         423.584000E+03
  average size                     181.260922E+03
 MPI breakdown and total messages size (bytes):
             size <=      128               75600                        0
       128 < size <=     8192                 360                  2496960
      8192 < size <=    32768               18750                279092640
     32768 < size <=   131072             7009290             417124802400
    131072 < size <=  4194304             7482880            2226624480000
   4194304 < size <= 16777216                   0                        0
  16777216 < size                               0                        0
 -------------------------------------------------------------------------------

 *** WARNING in dbcsr_mm.F:290 :: Using a non-square number of MPI ranks   ***
 *** might lead to poor performance. Used ranks: 1280 Suggested: 1296 2601 ***

 -------------------------------------------------------------------------------
 -                                                                             -
 -                      DBCSR MESSAGE PASSING PERFORMANCE                      -
 -                                                                             -
 -------------------------------------------------------------------------------
 ROUTINE             CALLS      AVE VOLUME [Bytes]
 MP_Bcast               51                     12.
 MP_Allreduce          632                     11.
 MP_Alltoall        101019                4182957.
 MP_ISend            23680                  89064.
 MP_IRecv            23680                  88395.
 -------------------------------------------------------------------------------

 -------------------------------------------------------------------------------
 -                                                                             -
 -                                DBM STATISTICS                               -
 -                                                                             -
 -------------------------------------------------------------------------------
    M  x    N  x    K                                          COUNT     PERCENT
    ?  x    ?  x  ???                                   139270975089      15.97%
    ?  x  ???  x    ?                                   143542136320      16.46%
  ???  x   ??  x   ??                                    91544666912      10.50%
   ??  x   ??  x  ???                                    82848955201       9.50%
    ?  x  ???  x   ??                                    17934131260       2.06%
    ?  x    ?  x >999                                    26364324934       3.02%
   ??  x   ??  x >999                                      348774868       0.04%
   ??  x >999  x   ??                                      306240000       0.04%
    ?  x   ??  x  ???                                    16438731483       1.89%
   ??  x    ?  x  ???                                    16264135844       1.87%
    ?  x    ?  x    ?                                   265342476138      30.43%
    ?  x   ??  x >999                                     3086133464       0.35%
   ??  x    ?  x >999                                     2984243160       0.34%
    ?  x >999  x   ??                                     2906316085       0.33%
   ??  x >999  x    ?                                     2517053786       0.29%
    ?  x >999  x    ?                                    23833405996       2.73%
   ??  x  ???  x    ?                                    15159114864       1.74%
   ??  x   ??  x   ??                                    19401485109       2.22%
   ??  x  ???  x   ??                                     1889360000       0.22%
 -------------------------------------------------------------------------------

 -------------------------------------------------------------------------------
 -                                                                             -
 -                                GRID STATISTICS                              -
 -                                                                             -
 -------------------------------------------------------------------------------
 LP    KERNEL             BACKEND                              COUNT     PERCENT
 4     collocate general  REF                               51486900      22.18%
 4     integrate general  REF                               51486900      22.18%
 5     collocate general  REF                               50983200      21.96%
 5     integrate general  REF                               50983200      21.96%
 6     collocate general  REF                               13037800       5.62%
 6     integrate general  REF                               13037800       5.62%
 0     collocate general  REF                                 768000       0.33%
 0     integrate general  REF                                 384000       0.17%
 -------------------------------------------------------------------------------

 MEMORY| Estimated peak process memory [MiB]                                4447

 -------------------------------------------------------------------------------
 ----                             MULTIGRID INFO                            ----
 -------------------------------------------------------------------------------
 count for grid        1:       42301820          cutoff [a.u.]          250.00
 count for grid        2:       24445280          cutoff [a.u.]           83.33
 count for grid        3:       17492960          cutoff [a.u.]           27.78
 count for grid        4:         220160          cutoff [a.u.]            9.26
 total gridlevel count  :       84460220

 -------------------------------------------------------------------------------
 -                                                                             -
 -                         MESSAGE PASSING PERFORMANCE                         -
 -                                                                             -
 -------------------------------------------------------------------------------

 ROUTINE             CALLS      AVE VOLUME [Bytes]
 MP_Group             5945
 MP_Bcast             8202                 946886.
 MP_Allreduce        12591                  15157.
 MP_Sync              9944
 MP_Alltoall          5141                 258089.
 MP_SendRecv        280101                  22720.
 MP_ISendRecv       280101                  22720.
 MP_Wait            296987
 MP_comm_split        3539
 MP_ISend           689028                 176307.
 MP_IRecv           729674                 184690.
 MP_Recv               860                1766400.
 -------------------------------------------------------------------------------


 -------------------------------------------------------------------------------
 -                                                                             -
 -                           R E F E R E N C E S                               -
 -                                                                             -
 -------------------------------------------------------------------------------
 
 CP2K version 2023.1 (Development Version), the CP2K developers group (2023).
 CP2K is freely available from https://www.cp2k.org/ .

 Kuehne,Thomas D.; Iannuzzi,Marcella; Del Ben,Mauro;
 Rybkin,Vladimir V.; Seewald,Patrick; Stein,Frederick; Laino,Teodoro;
 Khaliullin,Rustam Z.; Schuett,Ole; Schiffmann,Florian; Golze,Dorothea;
 Wilhelm,Jan; Chulkov,Sergey; Bani-Hashemian,Mohammad Hossein;
 Weber,Valery; Borstnik,Urban; Taillefumier,Mathieu;
 Jakobovits,Alice Shoshana; Lazzaro,Alfio; Pabst,Hans; Mueller,Tiziano;
 Schade,Robert; Guidon,Manuel; Andermatt,Samuel; Holmberg,Nico;
 Schenter,Gregory K.; Hehn,Anna; Bussy,Augustin; Belleflamme,Fabian;
 Tabacchi,Gloria; Gloess,Andreas; Lass,Michael; Bethune,Iain;
 Mundy,Christopher J.; Plessl,Christian; Watkins,Matt;
 VandeVondele,Joost; Krack,Matthias; Hutter,Juerg. 
 The Journal of Chemical Physics, 152 (19), (2020). 
 CP2K: An electronic structure and molecular dynamics software package -
 Quickstep: Efficient and accurate electronic structure calculations.
 https://doi.org/10.1063/5.0007045

 Wilhelm, J; Golze, D; Talirz, L; Hutter, J; Pignedoli, CA. 
 JOURNAL OF PHYSICAL CHEMISTRY LETTERS, 9, 306-312 (2018). 
 Toward GW calculations on thousands of atoms.
 https://doi.org/10.1021/acs.jpclett.7b02740

 Wilhelm, J; Hutter, J. PHYSICAL REVIEW B, 95, 235123 (2017). 
 Periodic GW calculations in the Gaussian and plane-waves scheme.
 https://doi.org/10.1103/PhysRevB.95.235123

 Wilhelm, J; Del Ben, M; Hutter, J. 
 JOURNAL OF CHEMICAL THEORY AND COMPUTATION, 12, 3623-3635 (2016). 
 GW in the Gaussian and plane waves scheme with application to linear acenes.
 https://doi.org/10.1021/acs.jctc.6b00380

 Wilhelm, J; Seewald, P; Del Ben, M; Hutter, J. 
 JOURNAL OF CHEMICAL THEORY AND COMPUTATION, 12, 5851-5859 (2016). 
 Large-Scale Cubic-Scaling Random Phase Approximation Correlation.
 https://doi.org/10.1021/acs.jctc.6b00840

 Schuett, Ole; Messmer, Peter; Hutter, Juerg; VandeVondele, Joost. 
 Electronic Structure Calculations on Graphics Processing Units, John
 Wiley & Sons, Ltd, 173-190 (2016). 
 GPU-Accelerated Sparse Matrix-Matrix Multiplication for
 Linear Scaling Density Functional Theory.
 https://doi.org/10.1002/9781118670712.ch8

 Heinecke, A; Henry, G; Hutchinson, M; Pabst, H. 
 Proceedings of Intl. Supercomputing Conference, 981-991 (2016). 
 LIBXSMM: Accelerating Small Matrix Multiplications
 by Runtime Code Generation.
 https://doi.org/10.1109/SC.2016.83

 Del Ben, M; Schuett, O; Wentz, T; Messmer, P; Hutter, J;
 VandeVondele, J. 
 COMPUTER PHYSICS COMMUNICATIONS, 187, 120-129 (2015). 
 Enabling simulation at the fifth rung of DFT: Large scale RPA
 calculations with excellent time to solution.
 https://doi.org/10.1016/j.cpc.2014.10.021

 Borstnik, U; VandeVondele, J; Weber, V; Hutter, J. 
 PARALLEL COMPUTING, 40 (5-6), 47-58 (2014). 
 Sparse matrix multiplication: The distributed block-compressed sparse
 row library.
 https://doi.org/10.1016/j.parco.2014.03.012

 Hutter, J; Iannuzzi, M; Schiffmann, F; VandeVondele, J. 
 WIREs Comput Mol Sci., 4 (1), 15-25 (2014). 
 CP2K: atomistic simulations of condensed matter systems.
 https://doi.org/10.1002/wcms.1159

 Del Ben, M; Hutter, J; VandeVondele, J. 
 JOURNAL OF CHEMICAL THEORY AND COMPUTATION, 9 (6), 2654-2671 (2013). 
 Electron Correlation in the Condensed Phase from a Resolution of
 Identity Approach Based on the Gaussian and Plane Waves Scheme.
 https://doi.org/10.1021/ct4002202

 Del Ben, M; Hutter, J; VandeVondele, J. 
 JOURNAL OF CHEMICAL THEORY AND COMPUTATION, 8 (11), 4177-4188 (2012). 
 Second-Order Moller-Plesset Perturbation Theory in the Condensed Phase:
 An Efficient and Massively Parallel Gaussian and Plane Waves Approach.
 https://doi.org/10.1021/ct300531w

 VandeVondele, J; Hutter, J. 
 JOURNAL OF CHEMICAL PHYSICS, 127 (11), 114105 (2007). 
 Gaussian basis sets for accurate calculations on molecular systems in
 gas and condensed phases.
 https://doi.org/10.1063/1.2770708

 Krack, M. 
 THEORETICAL CHEMISTRY ACCOUNTS, 114 (1-3), 145-152 (2005). 
 Pseudopotentials for H to Kr optimized for gradient-corrected
 exchange-correlation functionals.
 https://doi.org/10.1007/s00214-005-0655-y

 VandeVondele, J; Krack, M; Mohamed, F; Parrinello, M; Chassaing, T;
 Hutter, J. COMPUTER PHYSICS COMMUNICATIONS, 167 (2), 103-128 (2005). 
 QUICKSTEP: Fast and accurate density functional calculations using a
 mixed Gaussian and plane waves approach.
 https://doi.org/10.1016/j.cpc.2004.12.014

 Frigo, M; Johnson, SG. 
 PROCEEDINGS OF THE IEEE, 93 (2), 216-231 (2005). 
 The design and implementation of FFTW3.
 https://doi.org/10.1109/JPROC.2004.840301

 Hartwigsen, C; Goedecker, S; Hutter, J. 
 PHYSICAL REVIEW B, 58 (7), 3641-3662 (1998). 
 Relativistic separable dual-space Gaussian pseudopotentials from H to Rn.
 https://doi.org/10.1103/PhysRevB.58.3641

 Lippert, G; Hutter, J; Parrinello, M. 
 MOLECULAR PHYSICS, 92 (3), 477-487 (1997). 
 A hybrid Gaussian and plane wave density functional scheme.
 https://doi.org/10.1080/002689797170220

 Goedecker, S; Teter, M; Hutter, J. 
 PHYSICAL REVIEW B, 54 (3), 1703-1710 (1996). 
 Separable dual-space Gaussian pseudopotentials.
 https://doi.org/10.1103/PhysRevB.54.1703


 -------------------------------------------------------------------------------
 -                                                                             -
 -                                T I M I N G                                  -
 -                                                                             -
 -------------------------------------------------------------------------------
 SUBROUTINE                       CALLS  ASD         SELF TIME        TOTAL TIME
                                MAXIMUM       AVERAGE  MAXIMUM  AVERAGE  MAXIMUM
 CP2K                                 1  1.0    1.218    1.554 9487.144 9489.680
 qs_energies                          1  2.0    0.085    0.310 9482.542 9485.038
 mp2_main                             1  3.0    0.012    0.013 9096.663 9099.057
 mp2_gpw_main                         1  4.0    0.064    0.073 9092.374 9094.767
 rpa_ri_compute_en                    1  5.0    0.009    0.023 8399.284 8401.493
 rpa_num_int                          1  6.0    0.014    0.021 8029.189 8031.300
 dbt_total                         1907  9.8    0.012    0.015 4038.690 4039.764
 dbt_contract                       765 11.0    0.144    0.186 3703.833 3704.814
 dbt_tas_total                     1206 13.4  146.061  171.331 3624.799 3625.762
 dbt_tas_multiply                  1065 12.8    0.002    0.003 3610.856 3611.816
 rpa_num_int_RPA_matrix_operati      10  7.0    0.000    0.000 3442.480 3443.384
 invert_eps_compute_W_and_Erpa_      10  8.0    0.004    0.006 3442.410 3443.313
 compute_QP_energies                  1  7.0    0.001    0.001 3146.194 3147.030
 compute_self_energy_cubic_gw_k       1  8.0    0.140    0.160 3146.049 3146.925
 cp_cfm_heevd                       441 10.2 2806.250 2808.503 2806.250 2808.503
 cp_cfm_power                       312  9.7    0.247    0.287 2793.801 2794.968
 dbt_tas_dbm                       1065 14.8    0.003    0.004 2778.519 2779.257
 compute_Q_kp_RPA                   260  9.0    0.230    0.307 2757.632 2758.803
 dbm_multiply                      1065 16.8 2159.593 2370.043 2159.593 2370.043
 parallel_gemm_cfm                 4194 10.2    0.012    0.015 1527.058 1530.920
 parallel_gemm_cfm_cosma           4194 11.2 1527.046 1530.907 1527.046 1530.907
 compute_mat_P_omega                  1  7.0    0.001    0.002 1437.808 1438.185
 compute_mat_P_omega_contract        10  8.0    1.979    2.221 1423.725 1424.105
 contract_to_self_energy            198  9.0    0.005    0.006 1388.536 1389.686
 tensor_operation_3c_W               99  9.0    0.001    0.001 1265.499 1266.940
 dbt_tas_mm_2                       289 15.0    0.002    0.002 1068.648 1068.932
 mp_sync                           9944 12.7  726.477  907.883  726.477  907.883
 dbt_tas_mm_3N                      198 16.5    0.001    0.001  771.999  872.497
 mp2_ri_gpw_compute_in                1  5.0    0.068    0.071  693.006  693.190
 get_2c_integrals                     1  6.0    0.003    0.004  633.388  633.556
 compute_mat_P_omega_calc_P_t        90  9.0    0.000    0.000  623.314  623.479
 compute_Wc_real_space_tau_GW       260  9.0    0.002    0.004  568.629  568.972
 inversion_of_M_and_mult_with_c       1  7.0    0.001    0.001  473.241  473.368
 trafo_to_mo_and_kpoints             21  9.0    0.189    0.194  458.010  458.130
 compute_Wc_real_space_tau_GW_3     260 10.0    0.001    0.002  383.620  386.229
 scf_env_do_scf                       1  3.0    0.049    0.177  377.691  378.213
 scf_env_do_scf_inner_loop           72  4.0    0.023    0.057  377.642  378.180
 get_bandstruc_and_k_dependent_       1  6.0    0.002    0.002  370.081  370.180
 create_kp_and_calc_kp_orbitals       3  7.0    0.031    0.032  370.079  370.178
 cp_cfm_geeig                       129  8.0    0.005    0.007  363.480  365.275
 compute_mat_P_omega_calc_M_occ      90  9.0    1.893    2.101  351.601  351.695
 mp_waitall_2                      5567 16.7  243.227  333.544  243.227  333.544
 dbt_tas_mm_1N                      182 15.0    0.000    0.001  233.588  321.475
 dbt_tas_mm_3T                      396 16.5    0.001    0.001  294.740  317.718
 dbt_copy                           949 10.8    0.068    0.089  286.921  300.210
 dbt_reshape                        929 11.8   69.064   76.236  283.853  297.062
 compute_mat_P_omega_calc_M_vir      90  9.0    0.000    0.000  265.437  265.507
 dbm_redistribute                  2394 15.8  240.827  252.743  240.827  252.743
 dbt_communicate_buffer             929 12.8    0.211    0.242  199.264  210.839
 dbt_tas_replicate                  928 15.0   34.704   65.023  179.488  188.335
 compute_Wc_real_space_tau_GW_2     260 10.0    0.064    0.089  177.192  185.760
 convert_to_new_pgrid              3195 14.8   14.710   21.491  174.999  180.488
 cp_cfm_cholesky_invert             260 11.0  173.320  173.599  173.320  173.599
 dbt_tas_communicate_buffer        1955 17.3    0.365    0.791  151.012  167.130
 compute_V_by_lattice_sum             1  7.0    0.000    0.000  145.433  145.472
 build_2c_coulomb_matrix_kp           2  8.0    0.000    0.000  116.073  144.619
 lattice_sum                          2  9.0    3.936    4.428  116.073  144.618
 compute_v_transl                 13312 10.0  111.237  139.327  112.079  140.312
 qs_scf_new_mos                      72  5.0    0.001    0.001  136.102  136.247
 eigensolver                         73  6.0    0.014    0.073  135.775  135.858
 dbt_tas_replicate_communicate_     717 16.3    0.109    0.338  115.653  129.543
 cp_fm_syevd                         73  7.0    0.001    0.002  128.332  128.485
 cp_fm_redistribute_end              73  8.0  116.230  127.908  116.399  127.950
 cp_fm_syevd_base                    73  8.0   11.461  126.827   11.461  126.827
 qs_rho_update_rho_low               73  5.0    0.000    0.000  123.561  123.645
 calculate_rho_elec                  73  6.0    0.012    0.013  123.561  123.645
 qs_ks_build_kohn_sham_matrix        73  7.0    0.066    0.150  121.358  121.472
 mp_isend_im2                    132985 13.6   68.718  120.751   68.718  120.751
 sum_up_and_integrate                73  8.0    0.046    0.126  120.623  120.648
 integrate_v_rspace                  73  9.0    0.001    0.001  120.577  120.624
 qs_ks_update_qs_env                 72  5.0    0.000    0.000  119.713  119.843
 rebuild_ks_matrix                   72  6.0    0.000    0.000  119.568  119.682
 mp_sum_l                          6832 13.8   77.068  109.426   77.068  109.426
 grid_collocate_task_list            73  7.0   92.842  108.159   92.842  108.159
 grid_integrate_task_list            73 10.0   86.208  101.392   86.208  101.392
 -------------------------------------------------------------------------------

 The number of warnings for this run is : 3
 
 -------------------------------------------------------------------------------
  **** **** ******  **  PROGRAM ENDED AT                 2023-06-22 17:15:01.388
 ***** ** ***  *** **   PROGRAM RAN ON                          f0101.nhr.fau.de
 **    ****   ******    PROGRAM RAN BY                                  b165da10
 ***** **    ** ** **   PROGRAM PROCESS ID                               1696686
  **** **  *******  **  PROGRAM STOPPED IN /home/atuin/b165da/b165da10/13_WS2/10
                                           x10/1_RI-3_RI_reg_1E-2
