 DBCSR| CPU Multiplication driver                                           XSMM (U)
 DBCSR| Multrec recursion limit                                              512 (U)
 DBCSR| Multiplication stack size                                           1000 (D)
 DBCSR| Maximum elements for images                                    UNLIMITED (U)
 DBCSR| Multiplicative factor virtual images                                   1 (U)
 DBCSR| Use multiplication densification                                       T (D)
 DBCSR| Multiplication size stacks                                             3 (U)
 DBCSR| Use memory pool for CPU allocation                                     F (U)
 DBCSR| Number of 3D layers                                               SINGLE (U)
 DBCSR| Use MPI memory allocation                                              F (U)
 DBCSR| Use RMA algorithm                                                      F (U)
 DBCSR| Use Communication thread                                               T (U)
 DBCSR| Communication thread load                                             87 (D)
 DBCSR| MPI: My process id                                                     0
 DBCSR| MPI: Number of processes                                            1280
 DBCSR| OMP: Current number of threads                                         1
 DBCSR| OMP: Max number of threads                                             1
 DBCSR| Split modifier for TAS multiplication algorithm                  1.0E+00 (U)


  **** **** ******  **  PROGRAM STARTED AT               2023-03-04 00:01:56.336
 ***** ** ***  *** **   PROGRAM STARTED ON                      f0801.nhr.fau.de
 **    ****   ******    PROGRAM STARTED BY                              b165da10
 ***** **    ** ** **   PROGRAM PROCESS ID                               1427349
  **** **  *******  **  PROGRAM STARTED IN /home/atuin/b165da/b165da10/15_WSe2/1
                                           2x12/2_reg_RI_1e-2

 CP2K| version string:                 CP2K version 2023.1 (Development Version)
 CP2K| source code revision number:                                  git:383ec4c
 CP2K| cp2kflags: omp libint fftw3 libxc parallel mpi_f08 scalapack cosma xsmm p
 CP2K|            lumed2 spglib mkl libvdwxc
 CP2K| is freely available from                            https://www.cp2k.org/
 CP2K| Program compiled at                           Fri Feb 3 21:19:19 CET 2023
 CP2K| Program compiled on                                     fritz3.nhr.fau.de
 CP2K| Program compiled for                                                local
 CP2K| Data directory path    /home/atuin/b165da/b165da10/01_CP2K_compilations/0
 CP2K| Input file name                                               GW_WSe2.inp
 
 GLOBAL| Force Environment number                                              1
 GLOBAL| Basis set file name                                        BASIS_MOLOPT
 GLOBAL| Potential file name                                      GTH_POTENTIALS
 GLOBAL| MM Potential file name                                     MM_POTENTIAL
 GLOBAL| Coordinate file name                                      __STD_INPUT__
 GLOBAL| Method name                                                        CP2K
 GLOBAL| Project name                                                       MoS2
 GLOBAL| Run type                                                         ENERGY
 GLOBAL| FFT library                                                       FFTW3
 GLOBAL| Diagonalization library                                       ScaLAPACK
 GLOBAL| DGEMM library                                                      BLAS
 GLOBAL| Orthonormality check for eigenvectors                          DISABLED
 GLOBAL| Matrix multiplication library                                     COSMA
 GLOBAL| All-to-all communication in single precision                          F
 GLOBAL| FFTs using library dependent lengths                                  F
 GLOBAL| Grid backend                                                       AUTO
 GLOBAL| Global print level                                               MEDIUM
 GLOBAL| MPI I/O enabled                                                       T
 GLOBAL| Total number of message passing processes                          1280
 GLOBAL| Number of threads for this process                                    1
 GLOBAL| This output is from process                                           0
 GLOBAL| Stack size for threads created by OpenMP (OMP_STACKSIZE)           500m
 GLOBAL| CPU model name            Intel(R) Xeon(R) Platinum 8360Y CPU @ 2.40GHz
 GLOBAL| CPUID                                                              1003

 MEMORY| system memory details [Kb]
 MEMORY|                        rank 0           min           max       average
 MEMORY| MemTotal            263783612     263781496     263798200     263795456
 MEMORY| MemFree             245544764     243679144     254871248     249243137
 MEMORY| Buffers                   364           164          2768           995
 MEMORY| Cached                2669764       1362528       3198620       2752175
 MEMORY| Slab                  9275512        893332       9275512       5775270
 MEMORY| SReclaimable           146100        104552        249764        133090
 MEMORY| MemLikelyFree       248360992     246446724     257778632     252129400


 *** Fundamental physical constants (SI units) ***

 *** Literature: B. J. Mohr and B. N. Taylor,
 ***             CODATA recommended values of the fundamental physical
 ***             constants: 2006, Web Version 5.1
 ***             http://physics.nist.gov/constants

 Speed of light in vacuum [m/s]                             2.99792458000000E+08
 Magnetic constant or permeability of vacuum [N/A**2]       1.25663706143592E-06
 Electric constant or permittivity of vacuum [F/m]          8.85418781762039E-12
 Planck constant (h) [J*s]                                  6.62606896000000E-34
 Planck constant (h-bar) [J*s]                              1.05457162825177E-34
 Elementary charge [C]                                      1.60217648700000E-19
 Electron mass [kg]                                         9.10938215000000E-31
 Electron g factor [ ]                                     -2.00231930436220E+00
 Proton mass [kg]                                           1.67262163700000E-27
 Fine-structure constant                                    7.29735253760000E-03
 Rydberg constant [1/m]                                     1.09737315685270E+07
 Avogadro constant [1/mol]                                  6.02214179000000E+23
 Boltzmann constant [J/K]                                   1.38065040000000E-23
 Atomic mass unit [kg]                                      1.66053878200000E-27
 Bohr radius [m]                                            5.29177208590000E-11

 *** Conversion factors ***

 [u] -> [a.u.]                                              1.82288848426455E+03
 [Angstrom] -> [Bohr] = [a.u.]                              1.88972613288564E+00
 [a.u.] = [Bohr] -> [Angstrom]                              5.29177208590000E-01
 [a.u.] -> [s]                                              2.41888432650478E-17
 [a.u.] -> [fs]                                             2.41888432650478E-02
 [a.u.] -> [J]                                              4.35974393937059E-18
 [a.u.] -> [N]                                              8.23872205491840E-08
 [a.u.] -> [K]                                              3.15774647902944E+05
 [a.u.] -> [kJ/mol]                                         2.62549961709828E+03
 [a.u.] -> [kcal/mol]                                       6.27509468713739E+02
 [a.u.] -> [Pa]                                             2.94210107994716E+13
 [a.u.] -> [bar]                                            2.94210107994716E+08
 [a.u.] -> [atm]                                            2.90362800883016E+08
 [a.u.] -> [eV]                                             2.72113838565563E+01
 [a.u.] -> [Hz]                                             6.57968392072181E+15
 [a.u.] -> [1/cm] (wave numbers)                            2.19474631370540E+05
 [a.u./Bohr**2] -> [1/cm]                                   5.14048714338585E+03
 
 natom =           3
 SIZE(atom_info%r, 2) =           0
 natom =           3
 SIZE(atom_info%r, 2) =           0
 natom =           3
 SIZE(atom_info%r, 2) =           0
 natom =           3
 SIZE(atom_info%r, 2) =           0
 natom =           3
 SIZE(atom_info%r, 2) =           0
 natom =           3
 SIZE(atom_info%r, 2) =           0
 natom =           3
 SIZE(atom_info%r, 2) =           0
 natom =           3
 SIZE(atom_info%r, 2) =           0
 natom =           3
 SIZE(atom_info%r, 2) =           0
 natom =           3
 SIZE(atom_info%r, 2) =           0
 natom =           3
 SIZE(atom_info%r, 2) =           0
 natom =           3
 SIZE(atom_info%r, 2) =           0
 natom =           3
 SIZE(atom_info%r, 2) =           0
 natom =           3
 SIZE(atom_info%r, 2) =           0
 natom =           3
 SIZE(atom_info%r, 2) =           0
 natom =           3
 SIZE(atom_info%r, 2) =           0
 natom =           3
 SIZE(atom_info%r, 2) =           0
 natom =           3
 SIZE(atom_info%r, 2) =           0
 natom =           3
 SIZE(atom_info%r, 2) =           0
 natom =           3
 SIZE(atom_info%r, 2) =           0
 natom =           3
 SIZE(atom_info%r, 2) =           0
 natom =           3
 SIZE(atom_info%r, 2) =           0
 natom =           3
 SIZE(atom_info%r, 2) =           0
 natom =           3
 SIZE(atom_info%r, 2) =           0
 natom =           3
 SIZE(atom_info%r, 2) =           0
 natom =           3
 SIZE(atom_info%r, 2) =           0
 natom =           3
 SIZE(atom_info%r, 2) =           0
 natom =           3
 SIZE(atom_info%r, 2) =           0
 natom =           3
 SIZE(atom_info%r, 2) =           0
 natom =           3
 SIZE(atom_info%r, 2) =           0
 natom =           3
 SIZE(atom_info%r, 2) =           0
 natom =           3
 SIZE(atom_info%r, 2) =           0
 natom =           3
 SIZE(atom_info%r, 2) =           0
 natom =           3
 SIZE(atom_info%r, 2) =           0
 natom =           3
 SIZE(atom_info%r, 2) =           0
 natom =           3
 SIZE(atom_info%r, 2) =           0
 natom =           3
 SIZE(atom_info%r, 2) =           0
 natom =           3
 SIZE(atom_info%r, 2) =           0
 natom =           3
 SIZE(atom_info%r, 2) =           0
 natom =           3
 SIZE(atom_info%r, 2) =           0
 natom =           3
 SIZE(atom_info%r, 2) =           0
 natom =           3
 SIZE(atom_info%r, 2) =           0
 natom =           3
 SIZE(atom_info%r, 2) =           0
 natom =           3
 SIZE(atom_info%r, 2) =           0
 natom =           3
 SIZE(atom_info%r, 2) =           0
 natom =           3
 SIZE(atom_info%r, 2) =           0
 natom =           3
 SIZE(atom_info%r, 2) =           0
 natom =           3
 SIZE(atom_info%r, 2) =           0
 natom =           3
 SIZE(atom_info%r, 2) =           0
 natom =           3
 SIZE(atom_info%r, 2) =           0
 natom =           3
 SIZE(atom_info%r, 2) =           0
 natom =           3
 SIZE(atom_info%r, 2) =           0
 natom =           3
 SIZE(atom_info%r, 2) =           0
 natom =           3
 SIZE(atom_info%r, 2) =           0
 natom =           3
 SIZE(atom_info%r, 2) =           0
 natom =           3
 SIZE(atom_info%r, 2) =           0
 natom =           3
 SIZE(atom_info%r, 2) =           0
 natom =           3
 SIZE(atom_info%r, 2) =           0
 natom =           3
 SIZE(atom_info%r, 2) =           0
 natom =           3
 SIZE(atom_info%r, 2) =           0
 natom =           3
 SIZE(atom_info%r, 2) =           0
 natom =           3
 SIZE(atom_info%r, 2) =           0
 natom =           3
 SIZE(atom_info%r, 2) =           0
 natom =           3
 SIZE(atom_info%r, 2) =           0
 natom =           3
 SIZE(atom_info%r, 2) =           0
 natom =           3
 SIZE(atom_info%r, 2) =           0
 natom =           3
 SIZE(atom_info%r, 2) =           0
 natom =           3
 SIZE(atom_info%r, 2) =           0
 natom =           3
 SIZE(atom_info%r, 2) =           0
 natom =           3
 SIZE(atom_info%r, 2) =           0
 natom =           3
 SIZE(atom_info%r, 2) =           0
 natom =           3
 SIZE(atom_info%r, 2) =           0
 natom =           3
 SIZE(atom_info%r, 2) =           0
 natom =           3
 SIZE(atom_info%r, 2) =           0
 natom =           3
 SIZE(atom_info%r, 2) =           0
 natom =           3
 SIZE(atom_info%r, 2) =           0
 natom =           3
 SIZE(atom_info%r, 2) =           0
 natom =           3
 SIZE(atom_info%r, 2) =           0
 natom =           3
 SIZE(atom_info%r, 2) =           0
 natom =           3
 SIZE(atom_info%r, 2) =           0
 natom =           3
 SIZE(atom_info%r, 2) =           0
 natom =           3
 SIZE(atom_info%r, 2) =           0
 natom =           3
 SIZE(atom_info%r, 2) =           0
 natom =           3
 SIZE(atom_info%r, 2) =           0
 natom =           3
 SIZE(atom_info%r, 2) =           0
 natom =           3
 SIZE(atom_info%r, 2) =           0
 natom =           3
 SIZE(atom_info%r, 2) =           0
 natom =           3
 SIZE(atom_info%r, 2) =           0
 natom =           3
 SIZE(atom_info%r, 2) =           0
 natom =           3
 SIZE(atom_info%r, 2) =           0
 natom =           3
 SIZE(atom_info%r, 2) =           0
 natom =           3
 SIZE(atom_info%r, 2) =           0
 natom =           3
 SIZE(atom_info%r, 2) =           0
 natom =           3
 SIZE(atom_info%r, 2) =           0
 natom =           3
 SIZE(atom_info%r, 2) =           0
 natom =           3
 SIZE(atom_info%r, 2) =           0
 natom =           3
 SIZE(atom_info%r, 2) =           0
 natom =           3
 SIZE(atom_info%r, 2) =           0
 natom =           3
 SIZE(atom_info%r, 2) =           0
 natom =           3
 SIZE(atom_info%r, 2) =           0
 natom =           3
 SIZE(atom_info%r, 2) =           0
 natom =           3
 SIZE(atom_info%r, 2) =           0
 natom =           3
 SIZE(atom_info%r, 2) =           0
 natom =           3
 SIZE(atom_info%r, 2) =           0
 natom =           3
 SIZE(atom_info%r, 2) =           0
 natom =           3
 SIZE(atom_info%r, 2) =           0
 natom =           3
 SIZE(atom_info%r, 2) =           0
 natom =           3
 SIZE(atom_info%r, 2) =           0
 natom =           3
 SIZE(atom_info%r, 2) =           0
 natom =           3
 SIZE(atom_info%r, 2) =           0
 natom =           3
 SIZE(atom_info%r, 2) =           0
 natom =           3
 SIZE(atom_info%r, 2) =           0
 natom =           3
 SIZE(atom_info%r, 2) =           0
 natom =           3
 SIZE(atom_info%r, 2) =           0
 natom =           3
 SIZE(atom_info%r, 2) =           0
 natom =           3
 SIZE(atom_info%r, 2) =           0
 natom =           3
 SIZE(atom_info%r, 2) =           0
 natom =           3
 SIZE(atom_info%r, 2) =           0
 natom =           3
 SIZE(atom_info%r, 2) =           0
 natom =           3
 SIZE(atom_info%r, 2) =           0
 natom =           3
 SIZE(atom_info%r, 2) =           0
 natom =           3
 SIZE(atom_info%r, 2) =           0
 natom =           3
 SIZE(atom_info%r, 2) =           0
 natom =           3
 SIZE(atom_info%r, 2) =           0
 natom =           3
 SIZE(atom_info%r, 2) =           0
 natom =           3
 SIZE(atom_info%r, 2) =           0
 natom =           3
 SIZE(atom_info%r, 2) =           0
 natom =           3
 SIZE(atom_info%r, 2) =           0
 natom =           3
 SIZE(atom_info%r, 2) =           0
 natom =           3
 SIZE(atom_info%r, 2) =           0
 natom =           3
 SIZE(atom_info%r, 2) =           0
 natom =           3
 SIZE(atom_info%r, 2) =           0
 natom =           3
 SIZE(atom_info%r, 2) =           0
 natom =           3
 SIZE(atom_info%r, 2) =           0
 natom =           3
 SIZE(atom_info%r, 2) =           0
 natom =           3
 SIZE(atom_info%r, 2) =           0
 natom =           3
 SIZE(atom_info%r, 2) =           0
 natom =           3
 SIZE(atom_info%r, 2) =           0
 natom =           3
 SIZE(atom_info%r, 2) =           0
 natom =           3
 SIZE(atom_info%r, 2) =           0
 natom =           3
 SIZE(atom_info%r, 2) =           0
 natom =           3
 SIZE(atom_info%r, 2) =           0
 natom =           3
 SIZE(atom_info%r, 2) =           0
 natom =           3
 SIZE(atom_info%r, 2) =           0
 natom =           3
 SIZE(atom_info%r, 2) =           0
 natom =           3
 SIZE(atom_info%r, 2) =           0
 natom =           3
 SIZE(atom_info%r, 2) =           0
 natom =           3
 SIZE(atom_info%r, 2) =           0
 natom =           3
 SIZE(atom_info%r, 2) =           0
 natom =           3
 SIZE(atom_info%r, 2) =           0
 natom =           3
 SIZE(atom_info%r, 2) =           0
 natom =           3
 SIZE(atom_info%r, 2) =           0
 natom =           3
 SIZE(atom_info%r, 2) =           0
 natom =           3
 SIZE(atom_info%r, 2) =           0
 natom =           3
 SIZE(atom_info%r, 2) =           0
 natom =           3
 SIZE(atom_info%r, 2) =           0
 natom =           3
 SIZE(atom_info%r, 2) =           0
 natom =           3
 SIZE(atom_info%r, 2) =           0
 natom =           3
 SIZE(atom_info%r, 2) =           0
 natom =           3
 SIZE(atom_info%r, 2) =           0
 natom =           3
 SIZE(atom_info%r, 2) =           0
 natom =           3
 SIZE(atom_info%r, 2) =           0
 natom =           3
 SIZE(atom_info%r, 2) =           0
 natom =           3
 SIZE(atom_info%r, 2) =           0
 natom =           3
 SIZE(atom_info%r, 2) =           0
 natom =           3
 SIZE(atom_info%r, 2) =           0
 natom =           3
 SIZE(atom_info%r, 2) =           0
 natom =           3
 SIZE(atom_info%r, 2) =           0
 natom =           3
 SIZE(atom_info%r, 2) =           0
 natom =           3
 SIZE(atom_info%r, 2) =           0
 natom =           3
 SIZE(atom_info%r, 2) =           0
 natom =           3
 SIZE(atom_info%r, 2) =           0
 natom =           3
 SIZE(atom_info%r, 2) =           0
 natom =           3
 SIZE(atom_info%r, 2) =           0
 natom =           3
 SIZE(atom_info%r, 2) =           0
 natom =           3
 SIZE(atom_info%r, 2) =           0
 natom =           3
 SIZE(atom_info%r, 2) =           0
 natom =           3
 SIZE(atom_info%r, 2) =           0
 natom =           3
 SIZE(atom_info%r, 2) =           0
 natom =           3
 SIZE(atom_info%r, 2) =           0
 natom =           3
 SIZE(atom_info%r, 2) =           0
 natom =           3
 SIZE(atom_info%r, 2) =           0
 natom =           3
 SIZE(atom_info%r, 2) =           0
 natom =           3
 SIZE(atom_info%r, 2) =           0
 natom =           3
 SIZE(atom_info%r, 2) =           0
 natom =           3
 SIZE(atom_info%r, 2) =           0
 natom =           3
 SIZE(atom_info%r, 2) =           0
 natom =           3
 SIZE(atom_info%r, 2) =           0
 natom =           3
 SIZE(atom_info%r, 2) =           0
 natom =           3
 SIZE(atom_info%r, 2) =           0
 natom =           3
 SIZE(atom_info%r, 2) =           0
 natom =           3
 SIZE(atom_info%r, 2) =           0
 natom =           3
 SIZE(atom_info%r, 2) =           0
 natom =           3
 SIZE(atom_info%r, 2) =           0
 natom =           3
 SIZE(atom_info%r, 2) =           0
 natom =           3
 SIZE(atom_info%r, 2) =           0
 natom =           3
 SIZE(atom_info%r, 2) =           0
 natom =           3
 SIZE(atom_info%r, 2) =           0
 natom =           3
 SIZE(atom_info%r, 2) =           0
 natom =           3
 SIZE(atom_info%r, 2) =           0
 natom =           3
 SIZE(atom_info%r, 2) =           0
 natom =           3
 SIZE(atom_info%r, 2) =           0
 natom =           3
 SIZE(atom_info%r, 2) =           0
 natom =           3
 SIZE(atom_info%r, 2) =           0
 natom =           3
 SIZE(atom_info%r, 2) =           0
 natom =           3
 SIZE(atom_info%r, 2) =           0
 natom =           3
 SIZE(atom_info%r, 2) =           0
 natom =           3
 SIZE(atom_info%r, 2) =           0
 natom =           3
 SIZE(atom_info%r, 2) =           0
 natom =           3
 SIZE(atom_info%r, 2) =           0
 natom =           3
 SIZE(atom_info%r, 2) =           0
 natom =           3
 SIZE(atom_info%r, 2) =           0
 natom =           3
 SIZE(atom_info%r, 2) =           0
 natom =           3
 SIZE(atom_info%r, 2) =           0
 natom =           3
 SIZE(atom_info%r, 2) =           0
 natom =           3
 SIZE(atom_info%r, 2) =           0
 natom =           3
 SIZE(atom_info%r, 2) =           0
 natom =           3
 SIZE(atom_info%r, 2) =           0
 natom =           3
 SIZE(atom_info%r, 2) =           0
 natom =           3
 SIZE(atom_info%r, 2) =           0
 natom =           3
 SIZE(atom_info%r, 2) =           0
 natom =           3
 SIZE(atom_info%r, 2) =           0
 natom =           3
 SIZE(atom_info%r, 2) =           0
 natom =           3
 SIZE(atom_info%r, 2) =           0
 natom =           3
 SIZE(atom_info%r, 2) =           0
 natom =           3
 SIZE(atom_info%r, 2) =           0
 natom =           3
 SIZE(atom_info%r, 2) =           0
 natom =           3
 SIZE(atom_info%r, 2) =           0
 natom =           3
 SIZE(atom_info%r, 2) =           0
 natom =           3
 SIZE(atom_info%r, 2) =           0
 natom =           3
 SIZE(atom_info%r, 2) =           0
 natom =           3
 SIZE(atom_info%r, 2) =           0
 natom =           3
 SIZE(atom_info%r, 2) =           0
 natom =           3
 SIZE(atom_info%r, 2) =           0
 natom =           3
 SIZE(atom_info%r, 2) =           0
 natom =           3
 SIZE(atom_info%r, 2) =           0
 natom =           3
 SIZE(atom_info%r, 2) =           0
 natom =           3
 SIZE(atom_info%r, 2) =           0
 natom =           3
 SIZE(atom_info%r, 2) =           0
 natom =           3
 SIZE(atom_info%r, 2) =           0
 natom =           3
 SIZE(atom_info%r, 2) =           0
 natom =           3
 SIZE(atom_info%r, 2) =           0
 natom =           3
 SIZE(atom_info%r, 2) =           0
 natom =           3
 SIZE(atom_info%r, 2) =           0
 natom =           3
 SIZE(atom_info%r, 2) =           0
 natom =           3
 SIZE(atom_info%r, 2) =           0
 natom =           3
 SIZE(atom_info%r, 2) =           0
 natom =           3
 SIZE(atom_info%r, 2) =           0
 natom =           3
 SIZE(atom_info%r, 2) =           0
 natom =           3
 SIZE(atom_info%r, 2) =           0
 natom =           3
 SIZE(atom_info%r, 2) =           0
 natom =           3
 SIZE(atom_info%r, 2) =           0
 natom =           3
 SIZE(atom_info%r, 2) =           0
 natom =           3
 SIZE(atom_info%r, 2) =           0
 natom =           3
 SIZE(atom_info%r, 2) =           0
 natom =           3
 SIZE(atom_info%r, 2) =           0
 natom =           3
 SIZE(atom_info%r, 2) =           0
 natom =           3
 SIZE(atom_info%r, 2) =           0
 natom =           3
 SIZE(atom_info%r, 2) =           0
 natom =           3
 SIZE(atom_info%r, 2) =           0
 natom =           3
 SIZE(atom_info%r, 2) =           0
 natom =           3
 SIZE(atom_info%r, 2) =           0
 natom =           3
 SIZE(atom_info%r, 2) =           0
 natom =           3
 SIZE(atom_info%r, 2) =           0
 natom =           3
 SIZE(atom_info%r, 2) =           0
 natom =           3
 SIZE(atom_info%r, 2) =           0
 natom =           3
 SIZE(atom_info%r, 2) =           0
 natom =           3
 SIZE(atom_info%r, 2) =           0
 natom =           3
 SIZE(atom_info%r, 2) =           0
 natom =           3
 SIZE(atom_info%r, 2) =           0
 natom =           3
 SIZE(atom_info%r, 2) =           0
 natom =           3
 SIZE(atom_info%r, 2) =           0
 natom =           3
 SIZE(atom_info%r, 2) =           0
 natom =           3
 SIZE(atom_info%r, 2) =           0
 natom =           3
 SIZE(atom_info%r, 2) =           0
 natom =           3
 SIZE(atom_info%r, 2) =           0
 natom =           3
 SIZE(atom_info%r, 2) =           0
 natom =           3
 SIZE(atom_info%r, 2) =           0
 natom =           3
 SIZE(atom_info%r, 2) =           0
 natom =           3
 SIZE(atom_info%r, 2) =           0
 natom =           3
 SIZE(atom_info%r, 2) =           0
 natom =           3
 SIZE(atom_info%r, 2) =           0
 natom =           3
 SIZE(atom_info%r, 2) =           0
 natom =           3
 SIZE(atom_info%r, 2) =           0
 natom =           3
 SIZE(atom_info%r, 2) =           0
 natom =           3
 SIZE(atom_info%r, 2) =           0
 natom =           3
 SIZE(atom_info%r, 2) =           0
 natom =           3
 SIZE(atom_info%r, 2) =           0
 natom =           3
 SIZE(atom_info%r, 2) =           0
 natom =           3
 SIZE(atom_info%r, 2) =           0
 natom =           3
 SIZE(atom_info%r, 2) =           0
 natom =           3
 SIZE(atom_info%r, 2) =           0
 natom =           3
 SIZE(atom_info%r, 2) =           0
 natom =           3
 SIZE(atom_info%r, 2) =           0
 natom =           3
 SIZE(atom_info%r, 2) =           0
 natom =           3
 SIZE(atom_info%r, 2) =           0
 natom =           3
 SIZE(atom_info%r, 2) =           0
 natom =           3
 SIZE(atom_info%r, 2) =           0
 natom =           3
 SIZE(atom_info%r, 2) =           0
 natom =           3
 SIZE(atom_info%r, 2) =           0
 natom =           3
 SIZE(atom_info%r, 2) =           0
 natom =           3
 SIZE(atom_info%r, 2) =           0
 natom =           3
 SIZE(atom_info%r, 2) =           0
 natom =           3
 SIZE(atom_info%r, 2) =           0
 natom =           3
 SIZE(atom_info%r, 2) =           0
 natom =           3
 SIZE(atom_info%r, 2) =           0
 natom =           3
 SIZE(atom_info%r, 2) =           0
 natom =           3
 SIZE(atom_info%r, 2) =           0
 natom =           3
 SIZE(atom_info%r, 2) =           0
 natom =           3
 SIZE(atom_info%r, 2) =           0
 natom =           3
 SIZE(atom_info%r, 2) =           0
 natom =           3
 SIZE(atom_info%r, 2) =           0
 natom =           3
 SIZE(atom_info%r, 2) =           0
 natom =           3
 SIZE(atom_info%r, 2) =           0
 natom =           3
 SIZE(atom_info%r, 2) =           0
 natom =           3
 SIZE(atom_info%r, 2) =           0
 natom =           3
 SIZE(atom_info%r, 2) =           0
 natom =           3
 SIZE(atom_info%r, 2) =           0
 natom =           3
 SIZE(atom_info%r, 2) =           0
 natom =           3
 SIZE(atom_info%r, 2) =           0
 natom =           3
 SIZE(atom_info%r, 2) =           0
 natom =           3
 SIZE(atom_info%r, 2) =           0
 natom =           3
 SIZE(atom_info%r, 2) =           0
 natom =           3
 SIZE(atom_info%r, 2) =           0
 natom =           3
 SIZE(atom_info%r, 2) =           0
 natom =           3
 SIZE(atom_info%r, 2) =           0
 natom =           3
 SIZE(atom_info%r, 2) =           0
 natom =           3
 SIZE(atom_info%r, 2) =           0
 natom =           3
 SIZE(atom_info%r, 2) =           0
 natom =           3
 SIZE(atom_info%r, 2) =           0
 natom =           3
 SIZE(atom_info%r, 2) =           0
 natom =           3
 SIZE(atom_info%r, 2) =           0
 natom =           3
 SIZE(atom_info%r, 2) =           0
 natom =           3
 SIZE(atom_info%r, 2) =           0
 natom =           3
 SIZE(atom_info%r, 2) =           0
 natom =           3
 SIZE(atom_info%r, 2) =           0
 natom =           3
 SIZE(atom_info%r, 2) =           0
 natom =           3
 SIZE(atom_info%r, 2) =           0
 natom =           3
 SIZE(atom_info%r, 2) =           0
 natom =           3
 SIZE(atom_info%r, 2) =           0
 natom =           3
 SIZE(atom_info%r, 2) =           0
 natom =           3
 SIZE(atom_info%r, 2) =           0
 natom =           3
 SIZE(atom_info%r, 2) =           0
 natom =           3
 SIZE(atom_info%r, 2) =           0
 natom =           3
 SIZE(atom_info%r, 2) =           0
 natom =           3
 SIZE(atom_info%r, 2) =           0
 natom =           3
 SIZE(atom_info%r, 2) =           0
 natom =           3
 SIZE(atom_info%r, 2) =           0
 natom =           3
 SIZE(atom_info%r, 2) =           0
 natom =           3
 SIZE(atom_info%r, 2) =           0
 natom =           3
 SIZE(atom_info%r, 2) =           0
 natom =           3
 SIZE(atom_info%r, 2) =           0
 natom =           3
 SIZE(atom_info%r, 2) =           0
 natom =           3
 SIZE(atom_info%r, 2) =           0
 natom =           3
 SIZE(atom_info%r, 2) =           0
 natom =           3
 SIZE(atom_info%r, 2) =           0
 natom =           3
 SIZE(atom_info%r, 2) =           0
 natom =           3
 SIZE(atom_info%r, 2) =           0
 natom =           3
 SIZE(atom_info%r, 2) =           0
 natom =           3
 SIZE(atom_info%r, 2) =           0
 natom =           3
 SIZE(atom_info%r, 2) =           0
 natom =           3
 SIZE(atom_info%r, 2) =           0
 natom =           3
 SIZE(atom_info%r, 2) =           0
 natom =           3
 SIZE(atom_info%r, 2) =           0
 natom =           3
 SIZE(atom_info%r, 2) =           0
 natom =           3
 SIZE(atom_info%r, 2) =           0
 natom =           3
 SIZE(atom_info%r, 2) =           0
 natom =           3
 SIZE(atom_info%r, 2) =           0
 natom =           3
 SIZE(atom_info%r, 2) =           0
 natom =           3
 SIZE(atom_info%r, 2) =           0
 natom =           3
 SIZE(atom_info%r, 2) =           0
 natom =           3
 SIZE(atom_info%r, 2) =           0
 natom =           3
 SIZE(atom_info%r, 2) =           0
 natom =           3
 SIZE(atom_info%r, 2) =           0
 natom =           3
 SIZE(atom_info%r, 2) =           0
 natom =           3
 SIZE(atom_info%r, 2) =           0
 natom =           3
 SIZE(atom_info%r, 2) =           0
 natom =           3
 SIZE(atom_info%r, 2) =           0
 natom =           3
 SIZE(atom_info%r, 2) =           0
 natom =           3
 SIZE(atom_info%r, 2) =           0
 natom =           3
 SIZE(atom_info%r, 2) =           0
 natom =           3
 SIZE(atom_info%r, 2) =           0
 natom =           3
 SIZE(atom_info%r, 2) =           0
 natom =           3
 SIZE(atom_info%r, 2) =           0
 natom =           3
 SIZE(atom_info%r, 2) =           0
 natom =           3
 SIZE(atom_info%r, 2) =           0
 natom =           3
 SIZE(atom_info%r, 2) =           0
 natom =           3
 SIZE(atom_info%r, 2) =           0
 natom =           3
 SIZE(atom_info%r, 2) =           0
 natom =           3
 SIZE(atom_info%r, 2) =           0
 natom =           3
 SIZE(atom_info%r, 2) =           0
 natom =           3
 SIZE(atom_info%r, 2) =           0
 natom =           3
 SIZE(atom_info%r, 2) =           0
 natom =           3
 SIZE(atom_info%r, 2) =           0

 CELL_TOP| Volume [angstrom^3]:                                     20606.246355
 CELL_TOP| Vector a [angstrom    39.828     0.000     0.000   |a| =    39.828000
 CELL_TOP| Vector b [angstrom   -19.914    34.492     0.000   |b| =    39.828000
 CELL_TOP| Vector c [angstrom     0.000     0.000    15.000   |c| =    15.000000
 CELL_TOP| Angle (b,c), alpha [degree]:                                90.000000
 CELL_TOP| Angle (a,c), beta  [degree]:                                90.000000
 CELL_TOP| Angle (a,b), gamma [degree]:                               120.000000
 CELL_TOP| Numerically orthorhombic:                                          NO
 CELL_TOP| Periodicity                                                        XY

 CELL_UC| Volume [angstrom^3]:                                        143.098933
 CELL_UC| Vector a [angstrom]     3.319     0.000     0.000   |a| =     3.319000
 CELL_UC| Vector b [angstrom]    -1.659     2.874     0.000   |b| =     3.319000
 CELL_UC| Vector c [angstrom]     0.000     0.000    15.000   |c| =    15.000000
 CELL_UC| Angle (b,c), alpha [degree]:                                 90.000000
 CELL_UC| Angle (a,c), beta  [degree]:                                 90.000000
 CELL_UC| Angle (a,b), gamma [degree]:                                120.000000
 CELL_UC| Numerically orthorhombic:                                           NO
 CELL_UC| Periodicity                                                         XY
 natom =           3
 SIZE(atom_info%r, 2) =           0
 natom =           3
 SIZE(atom_info%r, 2) =           0
 natom =           3
 SIZE(atom_info%r, 2) =           0
 natom =           3
 SIZE(atom_info%r, 2) =           0
 natom =           3
 SIZE(atom_info%r, 2) =           0
 natom =           3
 SIZE(atom_info%r, 2) =           0
 natom =           3
 SIZE(atom_info%r, 2) =           0
 natom =           3
 SIZE(atom_info%r, 2) =           0
 natom =           3
 SIZE(atom_info%r, 2) =           0
 natom =           3
 SIZE(atom_info%r, 2) =           0
 natom =           3
 SIZE(atom_info%r, 2) =           0
 natom =           3
 SIZE(atom_info%r, 2) =           0
 natom =           3
 SIZE(atom_info%r, 2) =           0
 natom =           3
 SIZE(atom_info%r, 2) =           0
 natom =           3
 SIZE(atom_info%r, 2) =           0
 natom =           3
 SIZE(atom_info%r, 2) =           0
 natom =           3
 SIZE(atom_info%r, 2) =           0
 natom =           3
 SIZE(atom_info%r, 2) =           0
 natom =           3
 SIZE(atom_info%r, 2) =           0
 natom =           3
 SIZE(atom_info%r, 2) =           0
 natom =           3
 SIZE(atom_info%r, 2) =           0
 natom =           3
 SIZE(atom_info%r, 2) =           0
 natom =           3
 SIZE(atom_info%r, 2) =           0
 natom =           3
 SIZE(atom_info%r, 2) =           0
 natom =           3
 SIZE(atom_info%r, 2) =           0
 natom =           3
 SIZE(atom_info%r, 2) =           0
 natom =           3
 SIZE(atom_info%r, 2) =           0
 natom =           3
 SIZE(atom_info%r, 2) =           0
 natom =           3
 SIZE(atom_info%r, 2) =           0
 natom =           3
 SIZE(atom_info%r, 2) =           0
 natom =           3
 SIZE(atom_info%r, 2) =           0
 natom =           3
 SIZE(atom_info%r, 2) =           0
 natom =           3
 SIZE(atom_info%r, 2) =           0
 natom =           3
 SIZE(atom_info%r, 2) =           0
 natom =           3
 SIZE(atom_info%r, 2) =           0
 natom =           3
 SIZE(atom_info%r, 2) =           0
 natom =           3
 SIZE(atom_info%r, 2) =           0
 natom =           3
 SIZE(atom_info%r, 2) =           0
 natom =           3
 SIZE(atom_info%r, 2) =           0
 natom =           3
 SIZE(atom_info%r, 2) =           0
 natom =           3
 SIZE(atom_info%r, 2) =           0
 natom =           3
 SIZE(atom_info%r, 2) =           0
 natom =           3
 SIZE(atom_info%r, 2) =           0
 natom =           3
 SIZE(atom_info%r, 2) =           0
 natom =           3
 SIZE(atom_info%r, 2) =           0
 natom =           3
 SIZE(atom_info%r, 2) =           0
 natom =           3
 SIZE(atom_info%r, 2) =           0
 natom =           3
 SIZE(atom_info%r, 2) =           0
 natom =           3
 SIZE(atom_info%r, 2) =           0
 natom =           3
 SIZE(atom_info%r, 2) =           0
 natom =           3
 SIZE(atom_info%r, 2) =           0
 natom =           3
 SIZE(atom_info%r, 2) =           0
 natom =           3
 SIZE(atom_info%r, 2) =           0
 natom =           3
 SIZE(atom_info%r, 2) =           0
 natom =           3
 SIZE(atom_info%r, 2) =           0
 natom =           3
 SIZE(atom_info%r, 2) =           0
 natom =           3
 SIZE(atom_info%r, 2) =           0
 natom =           3
 SIZE(atom_info%r, 2) =           0
 natom =           3
 SIZE(atom_info%r, 2) =           0
 natom =           3
 SIZE(atom_info%r, 2) =           0
 natom =           3
 SIZE(atom_info%r, 2) =           0
 natom =           3
 SIZE(atom_info%r, 2) =           0
 natom =           3
 SIZE(atom_info%r, 2) =           0
 natom =           3
 SIZE(atom_info%r, 2) =           0
 natom =           3
 SIZE(atom_info%r, 2) =           0
 natom =           3
 SIZE(atom_info%r, 2) =           0
 natom =           3
 SIZE(atom_info%r, 2) =           0
 natom =           3
 SIZE(atom_info%r, 2) =           0
 natom =           3
 SIZE(atom_info%r, 2) =           0
 natom =           3
 SIZE(atom_info%r, 2) =           0
 natom =           3
 SIZE(atom_info%r, 2) =           0
 natom =           3
 SIZE(atom_info%r, 2) =           0
 natom =           3
 SIZE(atom_info%r, 2) =           0
 natom =           3
 SIZE(atom_info%r, 2) =           0
 natom =           3
 SIZE(atom_info%r, 2) =           0
 natom =           3
 SIZE(atom_info%r, 2) =           0
 natom =           3
 SIZE(atom_info%r, 2) =           0
 natom =           3
 SIZE(atom_info%r, 2) =           0
 natom =           3
 SIZE(atom_info%r, 2) =           0
 natom =           3
 SIZE(atom_info%r, 2) =           0
 natom =           3
 SIZE(atom_info%r, 2) =           0
 natom =           3
 SIZE(atom_info%r, 2) =           0
 natom =           3
 SIZE(atom_info%r, 2) =           0
 natom =           3
 SIZE(atom_info%r, 2) =           0
 natom =           3
 SIZE(atom_info%r, 2) =           0
 natom =           3
 SIZE(atom_info%r, 2) =           0
 natom =           3
 SIZE(atom_info%r, 2) =           0
 natom =           3
 SIZE(atom_info%r, 2) =           0
 natom =           3
 SIZE(atom_info%r, 2) =           0
 natom =           3
 SIZE(atom_info%r, 2) =           0
 natom =           3
 SIZE(atom_info%r, 2) =           0
 natom =           3
 SIZE(atom_info%r, 2) =           0
 natom =           3
 SIZE(atom_info%r, 2) =           0
 natom =           3
 SIZE(atom_info%r, 2) =           0
 natom =           3
 SIZE(atom_info%r, 2) =           0
 natom =           3
 SIZE(atom_info%r, 2) =           0
 natom =           3
 SIZE(atom_info%r, 2) =           0
 natom =           3
 SIZE(atom_info%r, 2) =           0
 natom =           3
 SIZE(atom_info%r, 2) =           0
 natom =           3
 SIZE(atom_info%r, 2) =           0
 natom =           3
 SIZE(atom_info%r, 2) =           0
 natom =           3
 SIZE(atom_info%r, 2) =           0
 natom =           3
 SIZE(atom_info%r, 2) =           0
 natom =           3
 SIZE(atom_info%r, 2) =           0
 natom =           3
 SIZE(atom_info%r, 2) =           0
 natom =           3
 SIZE(atom_info%r, 2) =           0
 natom =           3
 SIZE(atom_info%r, 2) =           0
 natom =           3
 SIZE(atom_info%r, 2) =           0
 natom =           3
 SIZE(atom_info%r, 2) =           0
 natom =           3
 SIZE(atom_info%r, 2) =           0
 natom =           3
 SIZE(atom_info%r, 2) =           0
 natom =           3
 SIZE(atom_info%r, 2) =           0
 natom =           3
 SIZE(atom_info%r, 2) =           0
 natom =           3
 SIZE(atom_info%r, 2) =           0
 natom =           3
 SIZE(atom_info%r, 2) =           0
 natom =           3
 SIZE(atom_info%r, 2) =           0
 natom =           3
 SIZE(atom_info%r, 2) =           0
 natom =           3
 SIZE(atom_info%r, 2) =           0
 natom =           3
 SIZE(atom_info%r, 2) =           0
 natom =           3
 SIZE(atom_info%r, 2) =           0
 natom =           3
 SIZE(atom_info%r, 2) =           0
 natom =           3
 SIZE(atom_info%r, 2) =           0
 natom =           3
 SIZE(atom_info%r, 2) =           0
 natom =           3
 SIZE(atom_info%r, 2) =           0
 natom =           3
 SIZE(atom_info%r, 2) =           0
 natom =           3
 SIZE(atom_info%r, 2) =           0
 natom =           3
 SIZE(atom_info%r, 2) =           0
 natom =           3
 SIZE(atom_info%r, 2) =           0
 natom =           3
 SIZE(atom_info%r, 2) =           0
 natom =           3
 SIZE(atom_info%r, 2) =           0
 natom =           3
 SIZE(atom_info%r, 2) =           0
 natom =           3
 SIZE(atom_info%r, 2) =           0
 natom =           3
 SIZE(atom_info%r, 2) =           0
 natom =           3
 SIZE(atom_info%r, 2) =           0
 natom =           3
 SIZE(atom_info%r, 2) =           0
 natom =           3
 SIZE(atom_info%r, 2) =           0
 natom =           3
 SIZE(atom_info%r, 2) =           0
 natom =           3
 SIZE(atom_info%r, 2) =           0
 natom =           3
 SIZE(atom_info%r, 2) =           0
 natom =           3
 SIZE(atom_info%r, 2) =           0
 natom =           3
 SIZE(atom_info%r, 2) =           0
 natom =           3
 SIZE(atom_info%r, 2) =           0
 natom =           3
 SIZE(atom_info%r, 2) =           0
 natom =           3
 SIZE(atom_info%r, 2) =           0
 natom =           3
 SIZE(atom_info%r, 2) =           0
 natom =           3
 SIZE(atom_info%r, 2) =           0
 natom =           3
 SIZE(atom_info%r, 2) =           0
 natom =           3
 SIZE(atom_info%r, 2) =           0
 natom =           3
 SIZE(atom_info%r, 2) =           0
 natom =           3
 SIZE(atom_info%r, 2) =           0
 natom =           3
 SIZE(atom_info%r, 2) =           0
 natom =           3
 SIZE(atom_info%r, 2) =           0
 natom =           3
 SIZE(atom_info%r, 2) =           0
 natom =           3
 SIZE(atom_info%r, 2) =           0
 natom =           3
 SIZE(atom_info%r, 2) =           0
 natom =           3
 SIZE(atom_info%r, 2) =           0
 natom =           3
 SIZE(atom_info%r, 2) =           0
 natom =           3
 SIZE(atom_info%r, 2) =           0
 natom =           3
 SIZE(atom_info%r, 2) =           0
 natom =           3
 SIZE(atom_info%r, 2) =           0
 natom =           3
 SIZE(atom_info%r, 2) =           0
 natom =           3
 SIZE(atom_info%r, 2) =           0
 natom =           3
 SIZE(atom_info%r, 2) =           0
 natom =           3
 SIZE(atom_info%r, 2) =           0
 natom =           3
 SIZE(atom_info%r, 2) =           0
 natom =           3
 SIZE(atom_info%r, 2) =           0
 natom =           3
 SIZE(atom_info%r, 2) =           0
 natom =           3
 SIZE(atom_info%r, 2) =           0
 natom =           3
 SIZE(atom_info%r, 2) =           0
 natom =           3
 SIZE(atom_info%r, 2) =           0
 natom =           3
 SIZE(atom_info%r, 2) =           0
 natom =           3
 SIZE(atom_info%r, 2) =           0
 natom =           3
 SIZE(atom_info%r, 2) =           0
 natom =           3
 SIZE(atom_info%r, 2) =           0
 natom =           3
 SIZE(atom_info%r, 2) =           0
 natom =           3
 SIZE(atom_info%r, 2) =           0
 natom =           3
 SIZE(atom_info%r, 2) =           0
 natom =           3
 SIZE(atom_info%r, 2) =           0
 natom =           3
 SIZE(atom_info%r, 2) =           0
 natom =           3
 SIZE(atom_info%r, 2) =           0
 natom =           3
 SIZE(atom_info%r, 2) =           0
 natom =           3
 SIZE(atom_info%r, 2) =           0
 natom =           3
 SIZE(atom_info%r, 2) =           0
 natom =           3
 SIZE(atom_info%r, 2) =           0
 natom =           3
 SIZE(atom_info%r, 2) =           0
 natom =           3
 SIZE(atom_info%r, 2) =           0
 natom =           3
 SIZE(atom_info%r, 2) =           0
 natom =           3
 SIZE(atom_info%r, 2) =           0
 natom =           3
 SIZE(atom_info%r, 2) =           0
 natom =           3
 SIZE(atom_info%r, 2) =           0
 natom =           3
 SIZE(atom_info%r, 2) =           0
 natom =           3
 SIZE(atom_info%r, 2) =           0
 natom =           3
 SIZE(atom_info%r, 2) =           0
 natom =           3
 SIZE(atom_info%r, 2) =           0
 natom =           3
 SIZE(atom_info%r, 2) =           0
 natom =           3
 SIZE(atom_info%r, 2) =           0
 natom =           3
 SIZE(atom_info%r, 2) =           0
 natom =           3
 SIZE(atom_info%r, 2) =           0
 natom =           3
 SIZE(atom_info%r, 2) =           0
 natom =           3
 SIZE(atom_info%r, 2) =           0
 natom =           3
 SIZE(atom_info%r, 2) =           0
 natom =           3
 SIZE(atom_info%r, 2) =           0
 natom =           3
 SIZE(atom_info%r, 2) =           0
 natom =           3
 SIZE(atom_info%r, 2) =           0
 natom =           3
 SIZE(atom_info%r, 2) =           0
 natom =           3
 SIZE(atom_info%r, 2) =           0
 natom =           3
 SIZE(atom_info%r, 2) =           0
 natom =           3
 SIZE(atom_info%r, 2) =           0
 natom =           3
 SIZE(atom_info%r, 2) =           0
 natom =           3
 SIZE(atom_info%r, 2) =           0
 natom =           3
 SIZE(atom_info%r, 2) =           0
 natom =           3
 SIZE(atom_info%r, 2) =           0
 natom =           3
 SIZE(atom_info%r, 2) =           0
 natom =           3
 SIZE(atom_info%r, 2) =           0
 natom =           3
 SIZE(atom_info%r, 2) =           0
 natom =           3
 SIZE(atom_info%r, 2) =           0
 natom =           3
 SIZE(atom_info%r, 2) =           0
 natom =           3
 SIZE(atom_info%r, 2) =           0
 natom =           3
 SIZE(atom_info%r, 2) =           0
 natom =           3
 SIZE(atom_info%r, 2) =           0
 natom =           3
 SIZE(atom_info%r, 2) =           0
 natom =           3
 SIZE(atom_info%r, 2) =           0
 natom =           3
 SIZE(atom_info%r, 2) =           0
 natom =           3
 SIZE(atom_info%r, 2) =           0
 natom =           3
 SIZE(atom_info%r, 2) =           0
 natom =           3
 SIZE(atom_info%r, 2) =           0
 natom =           3
 SIZE(atom_info%r, 2) =           0
 natom =           3
 SIZE(atom_info%r, 2) =           0
 natom =           3
 SIZE(atom_info%r, 2) =           0
 natom =           3
 SIZE(atom_info%r, 2) =           0
 natom =           3
 SIZE(atom_info%r, 2) =           0
 natom =           3
 SIZE(atom_info%r, 2) =           0
 natom =           3
 SIZE(atom_info%r, 2) =           0
 natom =           3
 SIZE(atom_info%r, 2) =           0
 natom =           3
 SIZE(atom_info%r, 2) =           0
 natom =           3
 SIZE(atom_info%r, 2) =           0
 natom =           3
 SIZE(atom_info%r, 2) =           0
 natom =           3
 SIZE(atom_info%r, 2) =           0
 natom =           3
 SIZE(atom_info%r, 2) =           0
 natom =           3
 SIZE(atom_info%r, 2) =           0
 natom =           3
 SIZE(atom_info%r, 2) =           0
 natom =           3
 SIZE(atom_info%r, 2) =           0
 natom =           3
 SIZE(atom_info%r, 2) =           0
 natom =           3
 SIZE(atom_info%r, 2) =           0
 natom =           3
 SIZE(atom_info%r, 2) =           0
 natom =           3
 SIZE(atom_info%r, 2) =           0
 natom =           3
 SIZE(atom_info%r, 2) =           0
 natom =           3
 SIZE(atom_info%r, 2) =           0
 natom =           3
 SIZE(atom_info%r, 2) =           0
 natom =           3
 SIZE(atom_info%r, 2) =           0
 natom =           3
 SIZE(atom_info%r, 2) =           0
 natom =           3
 SIZE(atom_info%r, 2) =           0
 natom =           3
 SIZE(atom_info%r, 2) =           0
 natom =           3
 SIZE(atom_info%r, 2) =           0
 natom =           3
 SIZE(atom_info%r, 2) =           0
 natom =           3
 SIZE(atom_info%r, 2) =           0
 natom =           3
 SIZE(atom_info%r, 2) =           0
 natom =           3
 SIZE(atom_info%r, 2) =           0
 natom =           3
 SIZE(atom_info%r, 2) =           0
 natom =           3
 SIZE(atom_info%r, 2) =           0
 natom =           3
 SIZE(atom_info%r, 2) =           0
 natom =           3
 SIZE(atom_info%r, 2) =           0
 natom =           3
 SIZE(atom_info%r, 2) =           0
 natom =           3
 SIZE(atom_info%r, 2) =           0
 natom =           3
 SIZE(atom_info%r, 2) =           0
 natom =           3
 SIZE(atom_info%r, 2) =           0
 natom =           3
 SIZE(atom_info%r, 2) =           0
 natom =           3
 SIZE(atom_info%r, 2) =           0
 natom =           3
 SIZE(atom_info%r, 2) =           0
 natom =           3
 SIZE(atom_info%r, 2) =           0
 natom =           3
 SIZE(atom_info%r, 2) =           0
 natom =           3
 SIZE(atom_info%r, 2) =           0
 natom =           3
 SIZE(atom_info%r, 2) =           0
 natom =           3
 SIZE(atom_info%r, 2) =           0
 natom =           3
 SIZE(atom_info%r, 2) =           0
 natom =           3
 SIZE(atom_info%r, 2) =           0
 natom =           3
 SIZE(atom_info%r, 2) =           0
 natom =           3
 SIZE(atom_info%r, 2) =           0
 natom =           3
 SIZE(atom_info%r, 2) =           0
 natom =           3
 SIZE(atom_info%r, 2) =           0
 natom =           3
 SIZE(atom_info%r, 2) =           0
 natom =           3
 SIZE(atom_info%r, 2) =           0
 natom =           3
 SIZE(atom_info%r, 2) =           0
 natom =           3
 SIZE(atom_info%r, 2) =           0
 natom =           3
 SIZE(atom_info%r, 2) =           0
 natom =           3
 SIZE(atom_info%r, 2) =           0
 natom =           3
 SIZE(atom_info%r, 2) =           0
 natom =           3
 SIZE(atom_info%r, 2) =           0
 natom =           3
 SIZE(atom_info%r, 2) =           0
 natom =           3
 SIZE(atom_info%r, 2) =           0
 natom =           3
 SIZE(atom_info%r, 2) =           0
 natom =           3
 SIZE(atom_info%r, 2) =           0
 natom =           3
 SIZE(atom_info%r, 2) =           0
 natom =           3
 SIZE(atom_info%r, 2) =           0
 natom =           3
 SIZE(atom_info%r, 2) =           0
 natom =           3
 SIZE(atom_info%r, 2) =           0
 natom =           3
 SIZE(atom_info%r, 2) =           0
 natom =           3
 SIZE(atom_info%r, 2) =           0
 natom =           3
 SIZE(atom_info%r, 2) =           0
 natom =           3
 SIZE(atom_info%r, 2) =           0
 natom =           3
 SIZE(atom_info%r, 2) =           0
 natom =           3
 SIZE(atom_info%r, 2) =           0
 natom =           3
 SIZE(atom_info%r, 2) =           0
 natom =           3
 SIZE(atom_info%r, 2) =           0
 natom =           3
 SIZE(atom_info%r, 2) =           0
 natom =           3
 SIZE(atom_info%r, 2) =           0
 natom =           3
 SIZE(atom_info%r, 2) =           0
 natom =           3
 SIZE(atom_info%r, 2) =           0
 natom =           3
 SIZE(atom_info%r, 2) =           0
 natom =           3
 SIZE(atom_info%r, 2) =           0
 natom =           3
 SIZE(atom_info%r, 2) =           0
 natom =           3
 SIZE(atom_info%r, 2) =           0
 natom =           3
 SIZE(atom_info%r, 2) =           0
 natom =           3
 SIZE(atom_info%r, 2) =           0
 natom =           3
 SIZE(atom_info%r, 2) =           0
 natom =           3
 SIZE(atom_info%r, 2) =           0
 natom =           3
 SIZE(atom_info%r, 2) =           0
 natom =           3
 SIZE(atom_info%r, 2) =           0
 natom =           3
 SIZE(atom_info%r, 2) =           0
 natom =           3
 SIZE(atom_info%r, 2) =           0
 natom =           3
 SIZE(atom_info%r, 2) =           0
 natom =           3
 SIZE(atom_info%r, 2) =           0
 natom =           3
 SIZE(atom_info%r, 2) =           0
 natom =           3
 SIZE(atom_info%r, 2) =           0
 natom =           3
 SIZE(atom_info%r, 2) =           0
 natom =           3
 SIZE(atom_info%r, 2) =           0
 natom =           3
 SIZE(atom_info%r, 2) =           0
 natom =           3
 SIZE(atom_info%r, 2) =           0
 natom =           3
 SIZE(atom_info%r, 2) =           0
 natom =           3
 SIZE(atom_info%r, 2) =           0
 natom =           3
 SIZE(atom_info%r, 2) =           0
 natom =           3
 SIZE(atom_info%r, 2) =           0
 natom =           3
 SIZE(atom_info%r, 2) =           0
 natom =           3
 SIZE(atom_info%r, 2) =           0
 natom =           3
 SIZE(atom_info%r, 2) =           0
 natom =           3
 SIZE(atom_info%r, 2) =           0
 natom =           3
 SIZE(atom_info%r, 2) =           0
 natom =           3
 SIZE(atom_info%r, 2) =           0
 natom =           3
 SIZE(atom_info%r, 2) =           0
 natom =           3
 SIZE(atom_info%r, 2) =           0
 natom =           3
 SIZE(atom_info%r, 2) =           0
 natom =           3
 SIZE(atom_info%r, 2) =           0
 natom =           3
 SIZE(atom_info%r, 2) =           0
 natom =           3
 SIZE(atom_info%r, 2) =           0
 natom =           3
 SIZE(atom_info%r, 2) =           0
 natom =           3
 SIZE(atom_info%r, 2) =           0
 natom =           3
 SIZE(atom_info%r, 2) =           0
 natom =           3
 SIZE(atom_info%r, 2) =           0
 natom =           3
 SIZE(atom_info%r, 2) =           0
 natom =           3
 SIZE(atom_info%r, 2) =           0
 natom =           3
 SIZE(atom_info%r, 2) =           0
 natom =           3
 SIZE(atom_info%r, 2) =           0
 natom =           3
 SIZE(atom_info%r, 2) =           0
 natom =           3
 SIZE(atom_info%r, 2) =           0
 natom =           3
 SIZE(atom_info%r, 2) =           0
 natom =           3
 SIZE(atom_info%r, 2) =           0
 natom =           3
 SIZE(atom_info%r, 2) =           0
 natom =           3
 SIZE(atom_info%r, 2) =           0
 natom =           3
 SIZE(atom_info%r, 2) =           0
 natom =           3
 SIZE(atom_info%r, 2) =           0
 natom =           3
 SIZE(atom_info%r, 2) =           0
 natom =           3
 SIZE(atom_info%r, 2) =           0
 natom =           3
 SIZE(atom_info%r, 2) =           0
 natom =           3
 SIZE(atom_info%r, 2) =           0
 natom =           3
 SIZE(atom_info%r, 2) =           0
 natom =           3
 SIZE(atom_info%r, 2) =           0
 natom =           3
 SIZE(atom_info%r, 2) =           0
 natom =           3
 SIZE(atom_info%r, 2) =           0
 natom =           3
 SIZE(atom_info%r, 2) =           0
 natom =           3
 SIZE(atom_info%r, 2) =           0
 natom =           3
 SIZE(atom_info%r, 2) =           0
 natom =           3
 SIZE(atom_info%r, 2) =           0
 natom =           3
 SIZE(atom_info%r, 2) =           0
 natom =           3
 SIZE(atom_info%r, 2) =           0
 natom =           3
 SIZE(atom_info%r, 2) =           0
 natom =           3
 SIZE(atom_info%r, 2) =           0
 natom =           3
 SIZE(atom_info%r, 2) =           0
 natom =           3
 SIZE(atom_info%r, 2) =           0
 natom =           3
 SIZE(atom_info%r, 2) =           0
 natom =           3
 SIZE(atom_info%r, 2) =           0
 natom =           3
 SIZE(atom_info%r, 2) =           0
 natom =           3
 SIZE(atom_info%r, 2) =           0
 natom =           3
 SIZE(atom_info%r, 2) =           0
 natom =           3
 SIZE(atom_info%r, 2) =           0
 natom =           3
 SIZE(atom_info%r, 2) =           0
 natom =           3
 SIZE(atom_info%r, 2) =           0
 natom =           3
 SIZE(atom_info%r, 2) =           0
 natom =           3
 SIZE(atom_info%r, 2) =           0
 natom =           3
 SIZE(atom_info%r, 2) =           0
 natom =           3
 SIZE(atom_info%r, 2) =           0
 natom =           3
 SIZE(atom_info%r, 2) =           0
 natom =           3
 SIZE(atom_info%r, 2) =           0
 natom =           3
 SIZE(atom_info%r, 2) =           0
 natom =           3
 SIZE(atom_info%r, 2) =           0
 natom =           3
 SIZE(atom_info%r, 2) =           0
 natom =           3
 SIZE(atom_info%r, 2) =           0
 natom =           3
 SIZE(atom_info%r, 2) =           0
 natom =           3
 SIZE(atom_info%r, 2) =           0
 natom =           3
 SIZE(atom_info%r, 2) =           0
 natom =           3
 SIZE(atom_info%r, 2) =           0
 natom =           3
 SIZE(atom_info%r, 2) =           0
 natom =           3
 SIZE(atom_info%r, 2) =           0
 natom =           3
 SIZE(atom_info%r, 2) =           0
 natom =           3
 SIZE(atom_info%r, 2) =           0
 natom =           3
 SIZE(atom_info%r, 2) =           0
 natom =           3
 SIZE(atom_info%r, 2) =           0
 natom =           3
 SIZE(atom_info%r, 2) =           0
 natom =           3
 SIZE(atom_info%r, 2) =           0
 natom =           3
 SIZE(atom_info%r, 2) =           0
 natom =           3
 SIZE(atom_info%r, 2) =           0
 natom =           3
 SIZE(atom_info%r, 2) =           0
 natom =           3
 SIZE(atom_info%r, 2) =           0
 natom =           3
 SIZE(atom_info%r, 2) =           0
 natom =           3
 SIZE(atom_info%r, 2) =           0
 natom =           3
 SIZE(atom_info%r, 2) =           0
 natom =           3
 SIZE(atom_info%r, 2) =           0
 natom =           3
 SIZE(atom_info%r, 2) =           0
 natom =           3
 SIZE(atom_info%r, 2) =           0
 natom =           3
 SIZE(atom_info%r, 2) =           0
 natom =           3
 SIZE(atom_info%r, 2) =           0
 natom =           3
 SIZE(atom_info%r, 2) =           0
 natom =           3
 SIZE(atom_info%r, 2) =           0
 natom =           3
 SIZE(atom_info%r, 2) =           0
 natom =           3
 SIZE(atom_info%r, 2) =           0
 natom =           3
 SIZE(atom_info%r, 2) =           0
 natom =           3
 SIZE(atom_info%r, 2) =           0
 natom =           3
 SIZE(atom_info%r, 2) =           0
 natom =           3
 SIZE(atom_info%r, 2) =           0
 natom =           3
 SIZE(atom_info%r, 2) =           0
 natom =           3
 SIZE(atom_info%r, 2) =           0
 natom =           3
 SIZE(atom_info%r, 2) =           0
 natom =           3
 SIZE(atom_info%r, 2) =           0
 natom =           3
 SIZE(atom_info%r, 2) =           0
 natom =           3
 SIZE(atom_info%r, 2) =           0
 natom =           3
 SIZE(atom_info%r, 2) =           0
 natom =           3
 SIZE(atom_info%r, 2) =           0
 natom =           3
 SIZE(atom_info%r, 2) =           0
 natom =           3
 SIZE(atom_info%r, 2) =           0
 natom =           3
 SIZE(atom_info%r, 2) =           0
 natom =           3
 SIZE(atom_info%r, 2) =           0
 natom =           3
 SIZE(atom_info%r, 2) =           0
 natom =           3
 SIZE(atom_info%r, 2) =           0
 natom =           3
 SIZE(atom_info%r, 2) =           0
 natom =           3
 SIZE(atom_info%r, 2) =           0
 natom =           3
 SIZE(atom_info%r, 2) =           0
 natom =           3
 SIZE(atom_info%r, 2) =           0
 natom =           3
 SIZE(atom_info%r, 2) =           0
 natom =           3
 SIZE(atom_info%r, 2) =           0
 natom =           3
 SIZE(atom_info%r, 2) =           0
 natom =           3
 SIZE(atom_info%r, 2) =           0
 natom =           3
 SIZE(atom_info%r, 2) =           0
 natom =           3
 SIZE(atom_info%r, 2) =           0
 natom =           3
 SIZE(atom_info%r, 2) =           0
 natom =           3
 SIZE(atom_info%r, 2) =           0
 natom =           3
 SIZE(atom_info%r, 2) =           0
 natom =           3
 SIZE(atom_info%r, 2) =           0
 natom =           3
 SIZE(atom_info%r, 2) =           0
 natom =           3
 SIZE(atom_info%r, 2) =           0
 natom =           3
 SIZE(atom_info%r, 2) =           0
 natom =           3
 SIZE(atom_info%r, 2) =           0
 natom =           3
 SIZE(atom_info%r, 2) =           0
 natom =           3
 SIZE(atom_info%r, 2) =           0
 natom =           3
 SIZE(atom_info%r, 2) =           0
 natom =           3
 SIZE(atom_info%r, 2) =           0
 natom =           3
 SIZE(atom_info%r, 2) =           0
 natom =           3
 SIZE(atom_info%r, 2) =           0
 natom =           3
 SIZE(atom_info%r, 2) =           0
 natom =           3
 SIZE(atom_info%r, 2) =           0
 natom =           3
 SIZE(atom_info%r, 2) =           0
 natom =           3
 SIZE(atom_info%r, 2) =           0
 natom =           3
 SIZE(atom_info%r, 2) =           0
 natom =           3
 SIZE(atom_info%r, 2) =           0
 natom =           3
 SIZE(atom_info%r, 2) =           0
 natom =           3
 SIZE(atom_info%r, 2) =           0
 natom =           3
 SIZE(atom_info%r, 2) =           0
 natom =           3
 SIZE(atom_info%r, 2) =           0
 natom =           3
 SIZE(atom_info%r, 2) =           0
 natom =           3
 SIZE(atom_info%r, 2) =           0
 natom =           3
 SIZE(atom_info%r, 2) =           0
 natom =           3
 SIZE(atom_info%r, 2) =           0
 natom =           3
 SIZE(atom_info%r, 2) =           0
 natom =           3
 SIZE(atom_info%r, 2) =           0
 natom =           3
 SIZE(atom_info%r, 2) =           0
 natom =           3
 SIZE(atom_info%r, 2) =           0
 natom =           3
 SIZE(atom_info%r, 2) =           0
 natom =           3
 SIZE(atom_info%r, 2) =           0
 natom =           3
 SIZE(atom_info%r, 2) =           0
 natom =           3
 SIZE(atom_info%r, 2) =           0
 natom =           3
 SIZE(atom_info%r, 2) =           0
 natom =           3
 SIZE(atom_info%r, 2) =           0
 natom =           3
 SIZE(atom_info%r, 2) =           0
 natom =           3
 SIZE(atom_info%r, 2) =           0
 natom =           3
 SIZE(atom_info%r, 2) =           0
 natom =           3
 SIZE(atom_info%r, 2) =           0
 natom =           3
 SIZE(atom_info%r, 2) =           0
 natom =           3
 SIZE(atom_info%r, 2) =           0
 natom =           3
 SIZE(atom_info%r, 2) =           0
 natom =           3
 SIZE(atom_info%r, 2) =           0
 natom =           3
 SIZE(atom_info%r, 2) =           0
 natom =           3
 SIZE(atom_info%r, 2) =           0
 natom =           3
 SIZE(atom_info%r, 2) =           0
 natom =           3
 SIZE(atom_info%r, 2) =           0
 natom =           3
 SIZE(atom_info%r, 2) =           0
 natom =           3
 SIZE(atom_info%r, 2) =           0
 natom =           3
 SIZE(atom_info%r, 2) =           0
 natom =           3
 SIZE(atom_info%r, 2) =           0
 natom =           3
 SIZE(atom_info%r, 2) =           0
 natom =           3
 SIZE(atom_info%r, 2) =           0
 natom =           3
 SIZE(atom_info%r, 2) =           0
 natom =           3
 SIZE(atom_info%r, 2) =           0
 natom =           3
 SIZE(atom_info%r, 2) =           0
 natom =           3
 SIZE(atom_info%r, 2) =           0
 natom =           3
 SIZE(atom_info%r, 2) =           0
 natom =           3
 SIZE(atom_info%r, 2) =           0
 natom =           3
 SIZE(atom_info%r, 2) =           0
 natom =           3
 SIZE(atom_info%r, 2) =           0
 natom =           3
 SIZE(atom_info%r, 2) =           0
 natom =           3
 SIZE(atom_info%r, 2) =           0
 natom =           3
 SIZE(atom_info%r, 2) =           0
 natom =           3
 SIZE(atom_info%r, 2) =           0
 natom =           3
 SIZE(atom_info%r, 2) =           0
 natom =           3
 SIZE(atom_info%r, 2) =           0
 natom =           3
 SIZE(atom_info%r, 2) =           0
 natom =           3
 SIZE(atom_info%r, 2) =           0
 natom =           3
 SIZE(atom_info%r, 2) =           0
 natom =           3
 SIZE(atom_info%r, 2) =           0
 natom =           3
 SIZE(atom_info%r, 2) =           0
 natom =           3
 SIZE(atom_info%r, 2) =           0
 natom =           3
 SIZE(atom_info%r, 2) =           0
 natom =           3
 SIZE(atom_info%r, 2) =           0
 natom =           3
 SIZE(atom_info%r, 2) =           0
 natom =           3
 SIZE(atom_info%r, 2) =           0
 natom =           3
 SIZE(atom_info%r, 2) =           0
 natom =           3
 SIZE(atom_info%r, 2) =           0
 natom =           3
 SIZE(atom_info%r, 2) =           0
 natom =           3
 SIZE(atom_info%r, 2) =           0
 natom =           3
 SIZE(atom_info%r, 2) =           0
 natom =           3
 SIZE(atom_info%r, 2) =           0
 natom =           3
 SIZE(atom_info%r, 2) =           0
 natom =           3
 SIZE(atom_info%r, 2) =           0
 natom =           3
 SIZE(atom_info%r, 2) =           0
 natom =           3
 SIZE(atom_info%r, 2) =           0
 natom =           3
 SIZE(atom_info%r, 2) =           0
 natom =           3
 SIZE(atom_info%r, 2) =           0
 natom =           3
 SIZE(atom_info%r, 2) =           0
 natom =           3
 SIZE(atom_info%r, 2) =           0
 natom =           3
 SIZE(atom_info%r, 2) =           0
 natom =           3
 SIZE(atom_info%r, 2) =           0
 natom =           3
 SIZE(atom_info%r, 2) =           0
 natom =           3
 SIZE(atom_info%r, 2) =           0
 natom =           3
 SIZE(atom_info%r, 2) =           0
 natom =           3
 SIZE(atom_info%r, 2) =           0
 natom =           3
 SIZE(atom_info%r, 2) =           0
 natom =           3
 SIZE(atom_info%r, 2) =           0
 natom =           3
 SIZE(atom_info%r, 2) =           0
 natom =           3
 SIZE(atom_info%r, 2) =           0
 natom =           3
 SIZE(atom_info%r, 2) =           0
 natom =           3
 SIZE(atom_info%r, 2) =           0
 natom =           3
 SIZE(atom_info%r, 2) =           0
 natom =           3
 SIZE(atom_info%r, 2) =           0
 natom =           3
 SIZE(atom_info%r, 2) =           0
 natom =           3
 SIZE(atom_info%r, 2) =           0
 natom =           3
 SIZE(atom_info%r, 2) =           0
 natom =           3
 SIZE(atom_info%r, 2) =           0
 natom =           3
 SIZE(atom_info%r, 2) =           0
 natom =           3
 SIZE(atom_info%r, 2) =           0
 natom =           3
 SIZE(atom_info%r, 2) =           0
 natom =           3
 SIZE(atom_info%r, 2) =           0
 natom =           3
 SIZE(atom_info%r, 2) =           0
 natom =           3
 SIZE(atom_info%r, 2) =           0
 natom =           3
 SIZE(atom_info%r, 2) =           0
 natom =           3
 SIZE(atom_info%r, 2) =           0
 natom =           3
 SIZE(atom_info%r, 2) =           0
 natom =           3
 SIZE(atom_info%r, 2) =           0
 natom =           3
 SIZE(atom_info%r, 2) =           0
 natom =           3
 SIZE(atom_info%r, 2) =           0
 natom =           3
 SIZE(atom_info%r, 2) =           0
 natom =           3
 SIZE(atom_info%r, 2) =           0
 natom =           3
 SIZE(atom_info%r, 2) =           0
 natom =           3
 SIZE(atom_info%r, 2) =           0
 natom =           3
 SIZE(atom_info%r, 2) =           0
 natom =           3
 SIZE(atom_info%r, 2) =           0
 natom =           3
 SIZE(atom_info%r, 2) =           0
 natom =           3
 SIZE(atom_info%r, 2) =           0
 natom =           3
 SIZE(atom_info%r, 2) =           0
 natom =           3
 SIZE(atom_info%r, 2) =           0
 natom =           3
 SIZE(atom_info%r, 2) =           0
 natom =           3
 SIZE(atom_info%r, 2) =           0
 natom =           3
 SIZE(atom_info%r, 2) =           0
 natom =           3
 SIZE(atom_info%r, 2) =           0
 natom =           3
 SIZE(atom_info%r, 2) =           0
 natom =           3
 SIZE(atom_info%r, 2) =           0
 natom =           3
 SIZE(atom_info%r, 2) =           0
 natom =           3
 SIZE(atom_info%r, 2) =           0
 natom =           3
 SIZE(atom_info%r, 2) =           0
 natom =           3
 SIZE(atom_info%r, 2) =           0
 natom =           3
 SIZE(atom_info%r, 2) =           0
 natom =           3
 SIZE(atom_info%r, 2) =           0
 natom =           3
 SIZE(atom_info%r, 2) =           0
 natom =           3
 SIZE(atom_info%r, 2) =           0
 natom =           3
 SIZE(atom_info%r, 2) =           0
 natom =           3
 SIZE(atom_info%r, 2) =           0
 natom =           3
 SIZE(atom_info%r, 2) =           0
 natom =           3
 SIZE(atom_info%r, 2) =           0
 natom =           3
 SIZE(atom_info%r, 2) =           0
 natom =           3
 SIZE(atom_info%r, 2) =           0
 natom =           3
 SIZE(atom_info%r, 2) =           0
 natom =           3
 SIZE(atom_info%r, 2) =           0
 natom =           3
 SIZE(atom_info%r, 2) =           0
 natom =           3
 SIZE(atom_info%r, 2) =           0
 natom =           3
 SIZE(atom_info%r, 2) =           0
 natom =           3
 SIZE(atom_info%r, 2) =           0
 natom =           3
 SIZE(atom_info%r, 2) =           0
 natom =           3
 SIZE(atom_info%r, 2) =           0
 natom =           3
 SIZE(atom_info%r, 2) =           0
 natom =           3
 SIZE(atom_info%r, 2) =           0
 natom =           3
 SIZE(atom_info%r, 2) =           0
 natom =           3
 SIZE(atom_info%r, 2) =           0
 natom =           3
 SIZE(atom_info%r, 2) =           0
 natom =           3
 SIZE(atom_info%r, 2) =           0
 natom =           3
 SIZE(atom_info%r, 2) =           0
 natom =           3
 SIZE(atom_info%r, 2) =           0
 natom =           3
 SIZE(atom_info%r, 2) =           0
 natom =           3
 SIZE(atom_info%r, 2) =           0
 natom =           3
 SIZE(atom_info%r, 2) =           0
 natom =           3
 SIZE(atom_info%r, 2) =           0
 natom =           3
 SIZE(atom_info%r, 2) =           0
 natom =           3
 SIZE(atom_info%r, 2) =           0
 natom =           3
 SIZE(atom_info%r, 2) =           0
 natom =           3
 SIZE(atom_info%r, 2) =           0
 natom =           3
 SIZE(atom_info%r, 2) =           0
 natom =           3
 SIZE(atom_info%r, 2) =           0
 natom =           3
 SIZE(atom_info%r, 2) =           0
 natom =           3
 SIZE(atom_info%r, 2) =           0
 natom =           3
 SIZE(atom_info%r, 2) =           0
 natom =           3
 SIZE(atom_info%r, 2) =           0
 natom =           3
 SIZE(atom_info%r, 2) =           0
 natom =           3
 SIZE(atom_info%r, 2) =           0
 natom =           3
 SIZE(atom_info%r, 2) =           0
 natom =           3
 SIZE(atom_info%r, 2) =           0
 natom =           3
 SIZE(atom_info%r, 2) =           0
 natom =           3
 SIZE(atom_info%r, 2) =           0
 natom =           3
 SIZE(atom_info%r, 2) =           0
 natom =           3
 SIZE(atom_info%r, 2) =           0
 natom =           3
 SIZE(atom_info%r, 2) =           0
 natom =           3
 SIZE(atom_info%r, 2) =           0
 natom =           3
 SIZE(atom_info%r, 2) =           0
 natom =           3
 SIZE(atom_info%r, 2) =           0
 natom =           3
 SIZE(atom_info%r, 2) =           0
 natom =           3
 SIZE(atom_info%r, 2) =           0
 natom =           3
 SIZE(atom_info%r, 2) =           0
 natom =           3
 SIZE(atom_info%r, 2) =           0
 natom =           3
 SIZE(atom_info%r, 2) =           0
 natom =           3
 SIZE(atom_info%r, 2) =           0
 natom =           3
 SIZE(atom_info%r, 2) =           0
 natom =           3
 SIZE(atom_info%r, 2) =           0
 natom =           3
 SIZE(atom_info%r, 2) =           0
 natom =           3
 SIZE(atom_info%r, 2) =           0
 natom =           3
 SIZE(atom_info%r, 2) =           0
 natom =           3
 SIZE(atom_info%r, 2) =           0
 natom =           3
 SIZE(atom_info%r, 2) =           0
 natom =           3
 SIZE(atom_info%r, 2) =           0
 natom =           3
 SIZE(atom_info%r, 2) =           0
 natom =           3
 SIZE(atom_info%r, 2) =           0
 natom =           3
 SIZE(atom_info%r, 2) =           0
 natom =           3
 SIZE(atom_info%r, 2) =           0
 natom =           3
 SIZE(atom_info%r, 2) =           0
 natom =           3
 SIZE(atom_info%r, 2) =           0
 natom =           3
 SIZE(atom_info%r, 2) =           0
 natom =           3
 SIZE(atom_info%r, 2) =           0
 natom =           3
 SIZE(atom_info%r, 2) =           0
 natom =           3
 SIZE(atom_info%r, 2) =           0
 natom =           3
 SIZE(atom_info%r, 2) =           0
 natom =           3
 SIZE(atom_info%r, 2) =           0
 natom =           3
 SIZE(atom_info%r, 2) =           0
 natom =           3
 SIZE(atom_info%r, 2) =           0
 natom =           3
 SIZE(atom_info%r, 2) =           0
 natom =           3
 SIZE(atom_info%r, 2) =           0
 natom =           3
 SIZE(atom_info%r, 2) =           0
 natom =           3
 SIZE(atom_info%r, 2) =           0
 natom =           3
 SIZE(atom_info%r, 2) =           0
 natom =           3
 SIZE(atom_info%r, 2) =           0
 natom =           3
 SIZE(atom_info%r, 2) =           0
 natom =           3
 SIZE(atom_info%r, 2) =           0
 natom =           3
 SIZE(atom_info%r, 2) =           0
 natom =           3
 SIZE(atom_info%r, 2) =           0
 natom =           3
 SIZE(atom_info%r, 2) =           0
 natom =           3
 SIZE(atom_info%r, 2) =           0
 natom =           3
 SIZE(atom_info%r, 2) =           0
 natom =           3
 SIZE(atom_info%r, 2) =           0
 natom =           3
 SIZE(atom_info%r, 2) =           0
 natom =           3
 SIZE(atom_info%r, 2) =           0
 natom =           3
 SIZE(atom_info%r, 2) =           0
 natom =           3
 SIZE(atom_info%r, 2) =           0
 natom =           3
 SIZE(atom_info%r, 2) =           0
 natom =           3
 SIZE(atom_info%r, 2) =           0
 natom =           3
 SIZE(atom_info%r, 2) =           0
 natom =           3
 SIZE(atom_info%r, 2) =           0
 natom =           3
 SIZE(atom_info%r, 2) =           0
 natom =           3
 SIZE(atom_info%r, 2) =           0
 natom =           3
 SIZE(atom_info%r, 2) =           0
 natom =           3
 SIZE(atom_info%r, 2) =           0
 natom =           3
 SIZE(atom_info%r, 2) =           0
 natom =           3
 SIZE(atom_info%r, 2) =           0
 natom =           3
 SIZE(atom_info%r, 2) =           0
 natom =           3
 SIZE(atom_info%r, 2) =           0
 natom =           3
 SIZE(atom_info%r, 2) =           0
 natom =           3
 SIZE(atom_info%r, 2) =           0
 natom =           3
 SIZE(atom_info%r, 2) =           0
 natom =           3
 SIZE(atom_info%r, 2) =           0
 natom =           3
 SIZE(atom_info%r, 2) =           0
 natom =           3
 SIZE(atom_info%r, 2) =           0
 natom =           3
 SIZE(atom_info%r, 2) =           0
 natom =           3
 SIZE(atom_info%r, 2) =           0
 natom =           3
 SIZE(atom_info%r, 2) =           0
 natom =           3
 SIZE(atom_info%r, 2) =           0
 natom =           3
 SIZE(atom_info%r, 2) =           0
 natom =           3
 SIZE(atom_info%r, 2) =           0
 natom =           3
 SIZE(atom_info%r, 2) =           0
 natom =           3
 SIZE(atom_info%r, 2) =           0
 natom =           3
 SIZE(atom_info%r, 2) =           0
 natom =           3
 SIZE(atom_info%r, 2) =           0
 natom =           3
 SIZE(atom_info%r, 2) =           0
 natom =           3
 SIZE(atom_info%r, 2) =           0
 natom =           3
 SIZE(atom_info%r, 2) =           0
 natom =           3
 SIZE(atom_info%r, 2) =           0
 natom =           3
 SIZE(atom_info%r, 2) =           0
 natom =           3
 SIZE(atom_info%r, 2) =           0
 natom =           3
 SIZE(atom_info%r, 2) =           0
 natom =           3
 SIZE(atom_info%r, 2) =           0
 natom =           3
 SIZE(atom_info%r, 2) =           0
 natom =           3
 SIZE(atom_info%r, 2) =           0
 natom =           3
 SIZE(atom_info%r, 2) =           0
 natom =           3
 SIZE(atom_info%r, 2) =           0
 natom =           3
 SIZE(atom_info%r, 2) =           0
 natom =           3
 SIZE(atom_info%r, 2) =           0
 natom =           3
 SIZE(atom_info%r, 2) =           0
 natom =           3
 SIZE(atom_info%r, 2) =           0
 natom =           3
 SIZE(atom_info%r, 2) =           0
 natom =           3
 SIZE(atom_info%r, 2) =           0
 natom =           3
 SIZE(atom_info%r, 2) =           0
 natom =           3
 SIZE(atom_info%r, 2) =           0
 natom =           3
 SIZE(atom_info%r, 2) =           0
 natom =           3
 SIZE(atom_info%r, 2) =           0
 natom =           3
 SIZE(atom_info%r, 2) =           0
 natom =           3
 SIZE(atom_info%r, 2) =           0
 natom =           3
 SIZE(atom_info%r, 2) =           0
 natom =           3
 SIZE(atom_info%r, 2) =           0
 natom =           3
 SIZE(atom_info%r, 2) =           0
 natom =           3
 SIZE(atom_info%r, 2) =           0
 natom =           3
 SIZE(atom_info%r, 2) =           0
 natom =           3
 SIZE(atom_info%r, 2) =           0
 natom =           3
 SIZE(atom_info%r, 2) =           0
 natom =           3
 SIZE(atom_info%r, 2) =           0
 natom =           3
 SIZE(atom_info%r, 2) =           0
 natom =           3
 SIZE(atom_info%r, 2) =           0
 natom =           3
 SIZE(atom_info%r, 2) =           0
 natom =           3
 SIZE(atom_info%r, 2) =           0
 natom =           3
 SIZE(atom_info%r, 2) =           0
 natom =           3
 SIZE(atom_info%r, 2) =           0
 natom =           3
 SIZE(atom_info%r, 2) =           0
 natom =           3
 SIZE(atom_info%r, 2) =           0
 natom =           3
 SIZE(atom_info%r, 2) =           0
 natom =           3
 SIZE(atom_info%r, 2) =           0
 natom =           3
 SIZE(atom_info%r, 2) =           0
 natom =           3
 SIZE(atom_info%r, 2) =           0
 natom =           3
 SIZE(atom_info%r, 2) =           0
 natom =           3
 SIZE(atom_info%r, 2) =           0
 natom =           3
 SIZE(atom_info%r, 2) =           0
 natom =           3
 SIZE(atom_info%r, 2) =           0
 natom =           3
 SIZE(atom_info%r, 2) =           0
 natom =           3
 SIZE(atom_info%r, 2) =           0
 natom =           3
 SIZE(atom_info%r, 2) =           0
 natom =           3
 SIZE(atom_info%r, 2) =           0
 natom =           3
 SIZE(atom_info%r, 2) =           0
 natom =           3
 SIZE(atom_info%r, 2) =           0
 natom =           3
 SIZE(atom_info%r, 2) =           0
 natom =           3
 SIZE(atom_info%r, 2) =           0
 natom =           3
 SIZE(atom_info%r, 2) =           0
 natom =           3
 SIZE(atom_info%r, 2) =           0
 natom =           3
 SIZE(atom_info%r, 2) =           0
 natom =           3
 SIZE(atom_info%r, 2) =           0
 natom =           3
 SIZE(atom_info%r, 2) =           0
 natom =           3
 SIZE(atom_info%r, 2) =           0
 natom =           3
 SIZE(atom_info%r, 2) =           0
 natom =           3
 SIZE(atom_info%r, 2) =           0
 natom =           3
 SIZE(atom_info%r, 2) =           0
 natom =           3
 SIZE(atom_info%r, 2) =           0
 natom =           3
 SIZE(atom_info%r, 2) =           0
 natom =           3
 SIZE(atom_info%r, 2) =           0
 natom =           3
 SIZE(atom_info%r, 2) =           0
 natom =           3
 SIZE(atom_info%r, 2) =           0
 natom =           3
 SIZE(atom_info%r, 2) =           0
 natom =           3
 SIZE(atom_info%r, 2) =           0
 natom =           3
 SIZE(atom_info%r, 2) =           0
 natom =           3
 SIZE(atom_info%r, 2) =           0
 natom =           3
 SIZE(atom_info%r, 2) =           0
 natom =           3
 SIZE(atom_info%r, 2) =           0
 natom =           3
 SIZE(atom_info%r, 2) =           0
 natom =           3
 SIZE(atom_info%r, 2) =           0
 natom =           3
 SIZE(atom_info%r, 2) =           0
 natom =           3
 SIZE(atom_info%r, 2) =           0
 natom =           3
 SIZE(atom_info%r, 2) =           0
 natom =           3
 SIZE(atom_info%r, 2) =           0
 natom =           3
 SIZE(atom_info%r, 2) =           0
 natom =           3
 SIZE(atom_info%r, 2) =           0
 natom =           3
 SIZE(atom_info%r, 2) =           0
 natom =           3
 SIZE(atom_info%r, 2) =           0
 natom =           3
 SIZE(atom_info%r, 2) =           0
 natom =           3
 SIZE(atom_info%r, 2) =           0
 natom =           3
 SIZE(atom_info%r, 2) =           0
 natom =           3
 SIZE(atom_info%r, 2) =           0
 natom =           3
 SIZE(atom_info%r, 2) =           0
 natom =           3
 SIZE(atom_info%r, 2) =           0
 natom =           3
 SIZE(atom_info%r, 2) =           0
 natom =           3
 SIZE(atom_info%r, 2) =           0
 natom =           3
 SIZE(atom_info%r, 2) =           0
 natom =           3
 SIZE(atom_info%r, 2) =           0
 natom =           3
 SIZE(atom_info%r, 2) =           0
 natom =           3
 SIZE(atom_info%r, 2) =           0
 natom =           3
 SIZE(atom_info%r, 2) =           0
 natom =           3
 SIZE(atom_info%r, 2) =           0
 natom =           3
 SIZE(atom_info%r, 2) =           0
 natom =           3
 SIZE(atom_info%r, 2) =           0
 natom =           3
 SIZE(atom_info%r, 2) =           0
 natom =           3
 SIZE(atom_info%r, 2) =           0
 natom =           3
 SIZE(atom_info%r, 2) =           0
 natom =           3
 SIZE(atom_info%r, 2) =           0
 natom =           3
 SIZE(atom_info%r, 2) =           0
 natom =           3
 SIZE(atom_info%r, 2) =           0
 natom =           3
 SIZE(atom_info%r, 2) =           0
 natom =           3
 SIZE(atom_info%r, 2) =           0
 natom =           3
 SIZE(atom_info%r, 2) =           0
 natom =           3
 SIZE(atom_info%r, 2) =           0
 natom =           3
 SIZE(atom_info%r, 2) =           0
 natom =           3
 SIZE(atom_info%r, 2) =           0
 natom =           3
 SIZE(atom_info%r, 2) =           0
 natom =           3
 SIZE(atom_info%r, 2) =           0
 natom =           3
[...]
 flops inhomo. stacks                991979716608     100.0%      0.0%      0.0%
 flops total                         7.521261E+12      13.2%     86.8%      0.0%
 flops max/rank                      7.539589E+09      12.5%     87.5%      0.0%
 matmuls inhomo. stacks                     40960     100.0%      0.0%      0.0%
 matmuls total                           52070272       0.1%     99.9%      0.0%
 number of processed stacks               2532288       1.6%     98.4%      0.0%
 average stack size                                     1.0      20.9       0.0
 marketing flops                     2.375697E+12
 -------------------------------------------------------------------------------
 # multiplications                              8
 max memory usage/rank             870.678528E+06
 # max total images/rank                        5
 # max 3D layers                                1
 # MPI messages exchanged                 1576960
 MPI messages size (bytes):
  total size                       573.016375E+09
  min size                           0.000000E+00
  max size                         860.360000E+03
  average size                     363.367719E+03
 MPI breakdown and total messages size (bytes):
             size <=      128               98400                        0
       128 < size <=     8192                   0                        0
      8192 < size <=    32768               61110               1600905720
     32768 < size <=   131072              481050              54411549960
    131072 < size <=  4194304              936400             517004374656
   4194304 < size <= 16777216                   0                        0
  16777216 < size                               0                        0
 -------------------------------------------------------------------------------

 *** WARNING in dbcsr_mm.F:290 :: Using a non-square number of MPI ranks   ***
 *** might lead to poor performance. Used ranks: 1280 Suggested: 1296 2601 ***

 -------------------------------------------------------------------------------
 -                                                                             -
 -                      DBCSR MESSAGE PASSING PERFORMANCE                      -
 -                                                                             -
 -------------------------------------------------------------------------------
 ROUTINE             CALLS      AVE VOLUME [Bytes]
 MP_Bcast               55                     12.
 MP_Allreduce          171                     21.
 MP_Alltoall         99159                4311176.
 MP_ISend             2560                 172608.
 MP_IRecv             2560                 172152.
 -------------------------------------------------------------------------------

 -------------------------------------------------------------------------------
 -                                                                             -
 -                                DBM STATISTICS                               -
 -                                                                             -
 -------------------------------------------------------------------------------
    M  x    N  x    K                                          COUNT     PERCENT
   ??  x  ???  x    ?                                    40792070922       3.87%
    ?  x    ?  x    ?                                   332801863551      31.59%
   ??  x  ???  x   ??                                    10492416000       1.00%
   ??  x    ?  x >999                                     5981845987       0.57%
   ??  x   ??  x >999                                     1608046712       0.15%
    ?  x   ??  x >999                                     5840609860       0.55%
    ?  x >999  x   ??                                     5577977570       0.53%
    ?  x   ??  x  ???                                    30971206870       2.94%
   ??  x   ??  x   ??                                    13554819231       1.29%
    ?  x >999  x    ?                                    21881323751       2.08%
    ?  x    ?  x >999                                    21741853019       2.06%
   ??  x    ?  x  ???                                    30316864099       2.88%
    ?  x  ???  x   ??                                    34017772628       3.23%
   ??  x   ??  x  ???                                   111136244844      10.55%
    ?  x  ???  x    ?                                   131960298194      12.53%
    ?  x    ?  x  ???                                   110412268934      10.48%
  ???  x   ??  x   ??                                   135918155520      12.90%
   ??  x >999  x    ?                                     6763225448       0.64%
   ??  x >999  x   ??                                     1718931456       0.16%
 -------------------------------------------------------------------------------

 -------------------------------------------------------------------------------
 -                                                                             -
 -                                GRID STATISTICS                              -
 -                                                                             -
 -------------------------------------------------------------------------------
 LP    KERNEL             BACKEND                              COUNT     PERCENT
 5     collocate general  REF                                2652480      21.39%
 5     integrate general  REF                                2652480      21.39%
 4     collocate general  REF                                1516320      12.23%
 4     integrate general  REF                                1516320      12.23%
 6     collocate general  REF                                1201680       9.69%
 6     integrate general  REF                                1201680       9.69%
 0     collocate general  REF                                1105920       8.92%
 0     integrate general  REF                                 552960       4.46%
 -------------------------------------------------------------------------------

 MEMORY| Estimated peak process memory [MiB]                                5955

 -------------------------------------------------------------------------------
 ----                             MULTIGRID INFO                            ----
 -------------------------------------------------------------------------------
 count for grid        1:       26894960          cutoff [a.u.]          250.00
 count for grid        2:       19728064          cutoff [a.u.]           83.33
 count for grid        3:       11964640          cutoff [a.u.]           27.78
 count for grid        4:         148480          cutoff [a.u.]            9.26
 total gridlevel count  :       58736144

 -------------------------------------------------------------------------------
 -                                                                             -
 -                         MESSAGE PASSING PERFORMANCE                         -
 -                                                                             -
 -------------------------------------------------------------------------------

 ROUTINE             CALLS      AVE VOLUME [Bytes]
 MP_Group             5935
 MP_Bcast            17918                 453552.
 MP_Allreduce        11649                  21327.
 MP_Sync              8992
 MP_Alltoall          3814                  40363.
 MP_SendRecv         12790                  10560.
 MP_ISendRecv        12790                  10560.
 MP_Wait             22704
 MP_comm_split        3468
 MP_ISend          1108458                 199545.
 MP_IRecv           893514                 207690.
 MP_Recv               310                2543616.
 -------------------------------------------------------------------------------


 -------------------------------------------------------------------------------
 -                                                                             -
 -                           R E F E R E N C E S                               -
 -                                                                             -
 -------------------------------------------------------------------------------
 
 CP2K version 2023.1 (Development Version), the CP2K developers group (2023).
 CP2K is freely available from https://www.cp2k.org/ .

 Kuehne,Thomas D.; Iannuzzi,Marcella; Del Ben,Mauro;
 Rybkin,Vladimir V.; Seewald,Patrick; Stein,Frederick; Laino,Teodoro;
 Khaliullin,Rustam Z.; Schuett,Ole; Schiffmann,Florian; Golze,Dorothea;
 Wilhelm,Jan; Chulkov,Sergey; Bani-Hashemian,Mohammad Hossein;
 Weber,Valery; Borstnik,Urban; Taillefumier,Mathieu;
 Jakobovits,Alice Shoshana; Lazzaro,Alfio; Pabst,Hans; Mueller,Tiziano;
 Schade,Robert; Guidon,Manuel; Andermatt,Samuel; Holmberg,Nico;
 Schenter,Gregory K.; Hehn,Anna; Bussy,Augustin; Belleflamme,Fabian;
 Tabacchi,Gloria; Gloess,Andreas; Lass,Michael; Bethune,Iain;
 Mundy,Christopher J.; Plessl,Christian; Watkins,Matt;
 VandeVondele,Joost; Krack,Matthias; Hutter,Juerg. 
 The Journal of Chemical Physics, 152 (19), (2020). 
 CP2K: An electronic structure and molecular dynamics software package -
 Quickstep: Efficient and accurate electronic structure calculations.
 https://doi.org/10.1063/5.0007045

 Wilhelm, J; Golze, D; Talirz, L; Hutter, J; Pignedoli, CA. 
 JOURNAL OF PHYSICAL CHEMISTRY LETTERS, 9, 306-312 (2018). 
 Toward GW calculations on thousands of atoms.
 https://doi.org/10.1021/acs.jpclett.7b02740

 Wilhelm, J; Hutter, J. PHYSICAL REVIEW B, 95, 235123 (2017). 
 Periodic GW calculations in the Gaussian and plane-waves scheme.
 https://doi.org/10.1103/PhysRevB.95.235123

 Wilhelm, J; Del Ben, M; Hutter, J. 
 JOURNAL OF CHEMICAL THEORY AND COMPUTATION, 12, 3623-3635 (2016). 
 GW in the Gaussian and plane waves scheme with application to linear acenes.
 https://doi.org/10.1021/acs.jctc.6b00380

 Wilhelm, J; Seewald, P; Del Ben, M; Hutter, J. 
 JOURNAL OF CHEMICAL THEORY AND COMPUTATION, 12, 5851-5859 (2016). 
 Large-Scale Cubic-Scaling Random Phase Approximation Correlation.
 https://doi.org/10.1021/acs.jctc.6b00840

 Schuett, Ole; Messmer, Peter; Hutter, Juerg; VandeVondele, Joost. 
 Electronic Structure Calculations on Graphics Processing Units, John
 Wiley & Sons, Ltd, 173-190 (2016). 
 GPU-Accelerated Sparse Matrix-Matrix Multiplication for
 Linear Scaling Density Functional Theory.
 https://doi.org/10.1002/9781118670712.ch8

 Heinecke, A; Henry, G; Hutchinson, M; Pabst, H. 
 Proceedings of Intl. Supercomputing Conference, 981-991 (2016). 
 LIBXSMM: Accelerating Small Matrix Multiplications
 by Runtime Code Generation.
 https://doi.org/10.1109/SC.2016.83

 Del Ben, M; Schuett, O; Wentz, T; Messmer, P; Hutter, J;
 VandeVondele, J. 
 COMPUTER PHYSICS COMMUNICATIONS, 187, 120-129 (2015). 
 Enabling simulation at the fifth rung of DFT: Large scale RPA
 calculations with excellent time to solution.
 https://doi.org/10.1016/j.cpc.2014.10.021

 Borstnik, U; VandeVondele, J; Weber, V; Hutter, J. 
 PARALLEL COMPUTING, 40 (5-6), 47-58 (2014). 
 Sparse matrix multiplication: The distributed block-compressed sparse
 row library.
 https://doi.org/10.1016/j.parco.2014.03.012

 Hutter, J; Iannuzzi, M; Schiffmann, F; VandeVondele, J. 
 WIREs Comput Mol Sci., 4 (1), 15-25 (2014). 
 CP2K: atomistic simulations of condensed matter systems.
 https://doi.org/10.1002/wcms.1159

 Del Ben, M; Hutter, J; VandeVondele, J. 
 JOURNAL OF CHEMICAL THEORY AND COMPUTATION, 9 (6), 2654-2671 (2013). 
 Electron Correlation in the Condensed Phase from a Resolution of
 Identity Approach Based on the Gaussian and Plane Waves Scheme.
 https://doi.org/10.1021/ct4002202

 Del Ben, M; Hutter, J; VandeVondele, J. 
 JOURNAL OF CHEMICAL THEORY AND COMPUTATION, 8 (11), 4177-4188 (2012). 
 Second-Order Moller-Plesset Perturbation Theory in the Condensed Phase:
 An Efficient and Massively Parallel Gaussian and Plane Waves Approach.
 https://doi.org/10.1021/ct300531w

 VandeVondele, J; Hutter, J. 
 JOURNAL OF CHEMICAL PHYSICS, 127 (11), 114105 (2007). 
 Gaussian basis sets for accurate calculations on molecular systems in
 gas and condensed phases.
 https://doi.org/10.1063/1.2770708

 Krack, M. 
 THEORETICAL CHEMISTRY ACCOUNTS, 114 (1-3), 145-152 (2005). 
 Pseudopotentials for H to Kr optimized for gradient-corrected
 exchange-correlation functionals.
 https://doi.org/10.1007/s00214-005-0655-y

 VandeVondele, J; Krack, M; Mohamed, F; Parrinello, M; Chassaing, T;
 Hutter, J. COMPUTER PHYSICS COMMUNICATIONS, 167 (2), 103-128 (2005). 
 QUICKSTEP: Fast and accurate density functional calculations using a
 mixed Gaussian and plane waves approach.
 https://doi.org/10.1016/j.cpc.2004.12.014

 Frigo, M; Johnson, SG. 
 PROCEEDINGS OF THE IEEE, 93 (2), 216-231 (2005). 
 The design and implementation of FFTW3.
 https://doi.org/10.1109/JPROC.2004.840301

 Hartwigsen, C; Goedecker, S; Hutter, J. 
 PHYSICAL REVIEW B, 58 (7), 3641-3662 (1998). 
 Relativistic separable dual-space Gaussian pseudopotentials from H to Rn.
 https://doi.org/10.1103/PhysRevB.58.3641

 Lippert, G; Hutter, J; Parrinello, M. 
 MOLECULAR PHYSICS, 92 (3), 477-487 (1997). 
 A hybrid Gaussian and plane wave density functional scheme.
 https://doi.org/10.1080/002689797170220

 Goedecker, S; Teter, M; Hutter, J. 
 PHYSICAL REVIEW B, 54 (3), 1703-1710 (1996). 
 Separable dual-space Gaussian pseudopotentials.
 https://doi.org/10.1103/PhysRevB.54.1703


 -------------------------------------------------------------------------------
 -                                                                             -
 -                                T I M I N G                                  -
 -                                                                             -
 -------------------------------------------------------------------------------
 SUBROUTINE                       CALLS  ASD         SELF TIME        TOTAL TIME
                                MAXIMUM       AVERAGE  MAXIMUM  AVERAGE  MAXIMUM
 CP2K                                 1  1.0     0.08     0.10 14687.83 14693.46
 qs_energies                          1  2.0     0.01     0.01 14686.86 14692.49
 mp2_main                             1  3.0     0.00     0.00 14653.63 14659.24
 mp2_gpw_main                         1  4.0     0.01     0.01 14648.18 14653.78
 rpa_ri_compute_en                    1  5.0     0.00     0.01 13452.38 13457.53
 rpa_num_int                          1  6.0     0.00     0.00 12799.63 12804.56
 rpa_num_int_RPA_matrix_operati      10  7.0     0.00     0.00  6000.27  6002.57
 invert_eps_compute_W_and_Erpa_      10  8.0     0.01     0.01  6000.22  6002.52
 dbt_total                         1907  9.8     0.01     0.02  5764.61  5766.82
 dbt_contract                       765 11.0     0.11     0.13  5219.94  5221.74
 dbt_tas_total                     1206 13.4   266.77   296.33  5139.28  5141.24
 dbt_tas_multiply                  1065 12.8     0.00     0.00  5097.20  5099.15
 compute_Q_kp_RPA                   260  9.0     0.42     0.48  4738.69  4740.83
 compute_QP_energies                  1  7.0     0.00     0.00  4703.69  4705.49
 compute_self_energy_cubic_gw_k       1  8.0     0.10     0.11  4703.47  4705.31
 cp_cfm_power                       312  9.7     0.39     0.41  4679.90  4682.24
 cp_cfm_heevd                       441 10.2  4655.49  4658.00  4655.49  4658.00
 dbt_tas_dbm                       1065 14.8     0.00     0.00  3868.11  3869.60
 dbm_multiply                      1065 16.8  3045.32  3390.09  3045.32  3390.09
 parallel_gemm_cfm                 4194 10.2     0.01     0.02  2903.99  2910.86
 parallel_gemm_cfm_cosma           4194 11.2  2903.98  2910.85  2903.98  2910.85
 compute_mat_P_omega                  1  7.0     0.00     0.00  2089.42  2090.23
 compute_mat_P_omega_contract        10  8.0     2.26     2.56  2063.20  2064.00
 contract_to_self_energy            198  9.0     0.00     0.01  2039.14  2040.96
 tensor_operation_3c_W               99  9.0     0.00     0.00  1722.89  1725.77
 dbt_tas_mm_2                       289 15.0     0.00     0.00  1380.76  1381.29
 dbt_tas_mm_3N                      198 16.5     0.00     0.00  1093.84  1254.51
 mp_sync                           8992 12.5   938.12  1224.69   938.12  1224.69
 mp2_ri_gpw_compute_in                1  5.0     0.01     0.02  1195.77  1196.23
 get_2c_integrals                     1  6.0     0.00     0.00  1158.05  1158.50
 compute_Wc_real_space_tau_GW       260  9.0     0.00     0.00  1067.02  1067.55
 trafo_to_mo_and_kpoints             21  9.0     0.27     0.29   879.71   880.04
 compute_mat_P_omega_calc_P_t        90  9.0     0.00     0.00   817.60   817.91
 inversion_of_M_and_mult_with_c       1  7.0     0.00     0.00   778.28   778.58
 compute_Wc_real_space_tau_GW_3     260 10.0     0.00     0.00   736.19   740.65
 get_bandstruc_and_k_dependent_       1  6.0     0.00     0.00   652.74   652.97
 create_kp_and_calc_kp_orbitals       3  7.0     0.01     0.01   652.74   652.96
 cp_cfm_geeig                       129  8.0     0.01     0.01   640.76   643.50
 mp_waitall_2                      5491 16.8   388.51   528.65   388.51   528.65
 dbt_tas_mm_3T                      396 16.5     0.00     0.00   474.24   524.35
 compute_mat_P_omega_calc_M_occ      90  9.0     2.16     2.42   505.25   505.45
 dbt_tas_mm_1N                      182 15.0     0.00     0.00   388.03   504.07
 dbt_copy                           947 10.8     0.07     0.10   462.92   476.66
 dbt_reshape                        927 11.8   106.34   114.75   459.39   472.85
 compute_mat_P_omega_calc_M_vir      90  9.0     0.00     0.00   411.58   411.73
 dbm_redistribute                  2394 15.8   348.76   366.78   348.76   366.78
 compute_Wc_real_space_tau_GW_2     260 10.0     0.12     0.14   315.21   357.44
 compute_V_by_lattice_sum             1  7.0     0.00     0.00   351.60   351.74
 build_2c_coulomb_matrix_kp           2  8.0     0.00     0.00   218.51   350.50
 lattice_sum                          2  9.0     7.80    11.45   218.51   350.50
 dbt_communicate_buffer             927 12.8     0.29     0.32   329.19   342.76
 compute_v_transl                 13312 10.0   208.43   336.71   210.59   339.66
 cp_cfm_cholesky_invert             260 11.0   308.35   308.89   308.35   308.89
 dbt_tas_replicate                  927 15.0    66.33   105.11   277.23   302.32
 convert_to_new_pgrid              3195 14.8    18.27    27.06   251.27   260.42
 dbt_tas_communicate_buffer        1854 17.3     0.45     0.79   214.05   251.64
 mp_isend_im2                    186329 13.7   120.85   214.40   120.85   214.40
 copy_dbcsr_to_fm                  3838 10.5     0.08     0.09   164.74   205.70
 dbt_tas_replicate_communicate_     717 16.3     0.14     0.24   162.29   195.60
 mp_alltoall_i22                  15277 12.7   149.67   192.25   149.67   192.25
 dbcsr_desymmetrize_deep           3898 11.4     1.43     1.93   144.10   185.51
 mp_sum_l                          6500 14.1   110.09   169.39   110.09   169.39
 cp_cfm_cholesky_decompose          389  9.7   169.23   169.32   169.23   169.32
 cholesky_decomp_Q                  260  9.0     0.72     0.78   155.35   156.23
 compute_mat_P_omega_copy_M_vir      90  9.0     0.00     0.00   149.10   149.47
 -------------------------------------------------------------------------------

 The number of warnings for this run is : 2
 
 -------------------------------------------------------------------------------
  **** **** ******  **  PROGRAM ENDED AT                 2023-03-04 04:06:47.424
 ***** ** ***  *** **   PROGRAM RAN ON                          f0801.nhr.fau.de
 **    ****   ******    PROGRAM RAN BY                                  b165da10
 ***** **    ** ** **   PROGRAM PROCESS ID                               1427349
  **** **  *******  **  PROGRAM STOPPED IN /home/atuin/b165da/b165da10/15_WSe2/1
                                           2x12/2_reg_RI_1e-2
