 DBCSR| CPU Multiplication driver                                           XSMM (U)
 DBCSR| Multrec recursion limit                                              512 (U)
 DBCSR| Multiplication stack size                                           1000 (D)
 DBCSR| Maximum elements for images                                    UNLIMITED (U)
 DBCSR| Multiplicative factor virtual images                                   1 (U)
 DBCSR| Use multiplication densification                                       T (D)
 DBCSR| Multiplication size stacks                                             3 (U)
 DBCSR| Use memory pool for CPU allocation                                     F (U)
 DBCSR| Number of 3D layers                                               SINGLE (U)
 DBCSR| Use MPI memory allocation                                              F (U)
 DBCSR| Use RMA algorithm                                                      F (U)
 DBCSR| Use Communication thread                                               T (U)
 DBCSR| Communication thread load                                             75 (D)
 DBCSR| MPI: My process id                                                     0
 DBCSR| MPI: Number of processes                                            1600
 DBCSR| OMP: Current number of threads                                         4
 DBCSR| OMP: Max number of threads                                             4
 DBCSR| Split modifier for TAS multiplication algorithm                  1.0E+00 (U)


  **** **** ******  **  PROGRAM STARTED AT               2023-05-27 01:57:06.024
 ***** ** ***  *** **   PROGRAM STARTED ON                              n2cn0349
 **    ****   ******    PROGRAM STARTED BY                              eprop2d1
 ***** **    ** ** **   PROGRAM PROCESS ID                                885774
  **** **  *******  **  PROGRAM STARTED IN /scratch/hpc-prf-eprop2d/eprop2d1_Jan
                                           /02_MoS2_MoSe2_WS2_WSe2/4_WSe2/11x11_
                                           PBE/1_reg_RI_1e-2_TZV2P_standard_RI_g
                                           ap

 CP2K| version string:                 CP2K version 2023.1 (Development Version)
 CP2K| source code revision number:                                  git:a5f008f
 CP2K| cp2kflags: omp libint fftw3 libxc elpa parallel scalapack cosma xsmm plum
 CP2K|            ed2 spglib sirius libvori libbqb libvdwxc
 CP2K| is freely available from                            https://www.cp2k.org/
 CP2K| Program compiled at                         Tue Apr 11 10:47:55 CEST 2023
 CP2K| Program compiled on                                              n2login5
 CP2K| Program compiled for                                                local
 CP2K| Data directory path    /opt/software/pc2/EB-SW/software/CP2K/2023.1-foss-
 CP2K| Input file name                                                    GW.inp

 GLOBAL| Force Environment number                                              1
 GLOBAL| Basis set file name                                        BASIS_MOLOPT
 GLOBAL| Potential file name                                      GTH_POTENTIALS
 GLOBAL| MM Potential file name                                     MM_POTENTIAL
 GLOBAL| Coordinate file name                                      __STD_INPUT__
 GLOBAL| Method name                                                        CP2K
 GLOBAL| Project name                                                       MoS2
 GLOBAL| Run type                                                         ENERGY
 GLOBAL| FFT library                                                       FFTW3
 GLOBAL| Diagonalization library                                            ELPA
 GLOBAL| DGEMM library                                                      BLAS
 GLOBAL| Minimum number of eigenvectors for ELPA usage                        16
 GLOBAL| Orthonormality check for eigenvectors                          DISABLED
 GLOBAL| Matrix multiplication library                                     COSMA
 GLOBAL| All-to-all communication in single precision                          F
 GLOBAL| FFTs using library dependent lengths                                  F
 GLOBAL| Grid backend                                                       AUTO
 GLOBAL| Global print level                                               MEDIUM
 GLOBAL| MPI I/O enabled                                                       T
 GLOBAL| Total number of message passing processes                          1600
 GLOBAL| Number of threads for this process                                    4
 GLOBAL| This output is from process                                           0
 GLOBAL| Stack size for threads created by OpenMP (OMP_STACKSIZE)        default
 GLOBAL| CPU model name                          AMD EPYC 7763 64-Core Processor
 GLOBAL| CPUID                                                              1002
 GLOBAL| Compiled for CPUID                                                    0

 *** HINT in environment.F:882 :: The compiler target flags (generic) used ***
 *** to build this binary cannot exploit all extensions of this CPU model  ***
 *** (x86_avx2). Consider compiler target flags as part of FCFLAGS and     ***
 *** CFLAGS (ARCH file).                                                   ***


 MEMORY| system memory details [Kb]
 MEMORY|                        rank 0           min           max       average
 MEMORY| MemTotal            263914148     263914148     263914156     263914150
 MEMORY| MemFree             246795360     234338832     250876732     245022654
 MEMORY| Buffers                221756        110204        351072        276020
 MEMORY| Cached                5672396       3986304      14928560       6274497
 MEMORY| Slab                  3947056       1373596      12925788       5105737
 MEMORY| SReclaimable           259224        183496        428472        286008
 MEMORY| MemLikelyFree       252948736     243207140     256073240     251859180


 *** Fundamental physical constants (SI units) ***

 *** Literature: B. J. Mohr and B. N. Taylor,
 ***             CODATA recommended values of the fundamental physical
 ***             constants: 2006, Web Version 5.1
 ***             http://physics.nist.gov/constants

 Speed of light in vacuum [m/s]                             2.99792458000000E+08
 Magnetic constant or permeability of vacuum [N/A**2]       1.25663706143592E-06
 Electric constant or permittivity of vacuum [F/m]          8.85418781762039E-12
 Planck constant (h) [J*s]                                  6.62606896000000E-34
 Planck constant (h-bar) [J*s]                              1.05457162825177E-34
 Elementary charge [C]                                      1.60217648700000E-19
 Electron mass [kg]                                         9.10938215000000E-31
 Electron g factor [ ]                                     -2.00231930436220E+00
 Proton mass [kg]                                           1.67262163700000E-27
 Fine-structure constant                                    7.29735253760000E-03
 Rydberg constant [1/m]                                     1.09737315685270E+07
 Avogadro constant [1/mol]                                  6.02214179000000E+23
 Boltzmann constant [J/K]                                   1.38065040000000E-23
 Atomic mass unit [kg]                                      1.66053878200000E-27
 Bohr radius [m]                                            5.29177208590000E-11

 *** Conversion factors ***

 [u] -> [a.u.]                                              1.82288848426455E+03
 [Angstrom] -> [Bohr] = [a.u.]                              1.88972613288564E+00
 [a.u.] = [Bohr] -> [Angstrom]                              5.29177208590000E-01
 [a.u.] -> [s]                                              2.41888432650478E-17
 [a.u.] -> [fs]                                             2.41888432650478E-02
 [a.u.] -> [J]                                              4.35974393937059E-18
 [a.u.] -> [N]                                              8.23872205491840E-08
 [a.u.] -> [K]                                              3.15774647902944E+05
 [a.u.] -> [kJ/mol]                                         2.62549961709828E+03
 [a.u.] -> [kcal/mol]                                       6.27509468713739E+02
 [a.u.] -> [Pa]                                             2.94210107994716E+13
 [a.u.] -> [bar]                                            2.94210107994716E+08
 [a.u.] -> [atm]                                            2.90362800883016E+08
 [a.u.] -> [eV]                                             2.72113838565563E+01
 [a.u.] -> [Hz]                                             6.57968392072181E+15
 [a.u.] -> [1/cm] (wave numbers)                            2.19474631370540E+05
 [a.u./Bohr**2] -> [1/cm]                                   5.14048714338585E+03
 

 CELL_TOP| Volume [angstrom^3]:                                     17314.970895
 CELL_TOP| Vector a [angstrom    36.509     0.000     0.000   |a| =    36.509000
 CELL_TOP| Vector b [angstrom   -18.254    31.618     0.000   |b| =    36.509000
 CELL_TOP| Vector c [angstrom     0.000     0.000    15.000   |c| =    15.000000
 CELL_TOP| Angle (b,c), alpha [degree]:                                90.000000
 CELL_TOP| Angle (a,c), beta  [degree]:                                90.000000
 CELL_TOP| Angle (a,b), gamma [degree]:                               120.000000
 CELL_TOP| Numerically orthorhombic:                                          NO
 CELL_TOP| Periodicity                                                        XY

 CELL_UC| Volume [angstrom^3]:                                        143.098933
 CELL_UC| Vector a [angstrom]     3.319     0.000     0.000   |a| =     3.319000
 CELL_UC| Vector b [angstrom]    -1.659     2.874     0.000   |b| =     3.319000
 CELL_UC| Vector c [angstrom]     0.000     0.000    15.000   |c| =    15.000000
 CELL_UC| Angle (b,c), alpha [degree]:                                 90.000000
 CELL_UC| Angle (a,c), beta  [degree]:                                 90.000000
 CELL_UC| Angle (a,b), gamma [degree]:                                120.000000
 CELL_UC| Numerically orthorhombic:                                           NO
 CELL_UC| Periodicity                                                         XY

 GENERATE|  Preliminary Number of Bonds generated:                             0
 GENERATE|  Achieved consistency in connectivity generation.

 CELL| Volume [angstrom^3]:                                         17314.970895
 CELL| Vector a [angstrom]:      36.509     0.000     0.000   |a| =    36.509000
 CELL| Vector b [angstrom]:     -18.254    31.618     0.000   |b| =    36.509000
 CELL| Vector c [angstrom]:       0.000     0.000    15.000   |c| =    15.000000
 CELL| Angle (b,c), alpha [degree]:                                    90.000000
 CELL| Angle (a,c), beta  [degree]:                                    90.000000
 CELL| Angle (a,b), gamma [degree]:                                   120.000000
 CELL| Numerically orthorhombic:                                              NO
 CELL| Periodicity                                                            XY

 CELL_REF| Volume [angstrom^3]:                                     17314.970895
 CELL_REF| Vector a [angstrom    36.509     0.000     0.000   |a| =    36.509000
 CELL_REF| Vector b [angstrom   -18.254    31.618     0.000   |b| =    36.509000
 CELL_REF| Vector c [angstrom     0.000     0.000    15.000   |c| =    15.000000
 CELL_REF| Angle (b,c), alpha [degree]:                                90.000000
 CELL_REF| Angle (a,c), beta  [degree]:                                90.000000
 CELL_REF| Angle (a,b), gamma [degree]:                               120.000000
 CELL_REF| Numerically orthorhombic:                                          NO
 CELL_REF| Periodicity                                                        XY

 *******************************************************************************
 *******************************************************************************
 **                                                                           **
 **     #####                         ##              ##                      **
 **    ##   ##            ##          ##              ##                      **
 **   ##     ##                       ##            ######                    **
 **   ##     ##  ##   ##  ##   #####  ##  ##   ####   ##    #####    #####    **
 **   ##     ##  ##   ##  ##  ##      ## ##   ##      ##   ##   ##  ##   ##   **
 **   ##  ## ##  ##   ##  ##  ##      ####     ###    ##   ######   ######    **
 **    ##  ###   ##   ##  ##  ##      ## ##      ##   ##   ##       ##        **
 **     #######   #####   ##   #####  ##  ##  ####    ##    #####   ##        **
 **           ##                                                    ##        **
 **                                                                           **
 **                                                ... make the atoms dance   **
 **                                                                           **
 **            Copyright (C) by CP2K developers group (2000-2023)             **
 **                      J. Chem. Phys. 152, 194103 (2020)                    **
 **                                                                           **
 *******************************************************************************

 DFT| Spin restricted Kohn-Sham (RKS) calculation                            RKS
 DFT| Multiplicity                                                             1
 DFT| Number of spin states                                                    1
 DFT| Charge                                                                   0
 DFT| Self-interaction correction (SIC)                                       NO
 DFT| Cutoffs: density                                              1.000000E-10
 DFT|          gradient                                             1.000000E-10
 DFT|          tau                                                  1.000000E-10
 DFT|          cutoff_smoothing_range                               0.000000E+00
 DFT| XC density smoothing                                                  NONE
 DFT| XC derivatives                                                          PW

 FUNCTIONAL| PADE:
 FUNCTIONAL| S. Goedecker, M. Teter and J. Hutter, Phys. Rev. B 54, 1703 (1996) 


 QS| Method:                                                                 GPW
 QS| Density plane wave grid type                        NON-SPHERICAL FULLSPACE
 QS| Number of grid levels:                                                    4
 QS| Density cutoff [a.u.]:                                                250.0
 QS| Multi grid cutoff [a.u.]: 1) grid level                               250.0
 QS|                           2) grid level                                83.3
 QS|                           3) grid level                                27.8
 QS|                           4) grid level                                 9.3
 QS| Grid level progression factor:                                          3.0
 QS| Relative density cutoff [a.u.]:                                        50.0
 QS| Interaction thresholds: eps_pgf_orb:                                1.0E-40
 QS|                         eps_filter_matrix:                          0.0E+00
 QS|                         eps_core_charge:                            1.0E-42
 QS|                         eps_rho_gspace:                             1.0E-40
 QS|                         eps_rho_rspace:                             1.0E-40
 QS|                         eps_gvg_rspace:                             1.0E-20
 QS|                         eps_ppl:                                    1.0E-02
 QS|                         eps_ppnl:                                   1.0E-22


 ATOMIC KIND INFORMATION

  1. Atomic kind: W                                     Number of atoms:     121

     Orbital Basis Set                                       TZV2P-MOLOPT-SR-GTH

       Number of orbital shell sets:                                           1
       Number of orbital shells:                                              12
       Number of primitive Cartesian functions:                                6
       Number of Cartesian basis functions:                                   51
       Number of spherical basis functions:                                   42
       Norm type:                                                              2

       Normalised Cartesian orbitals:

                        Set   Shell   Orbital            Exponent    Coefficient

                          1       1    2s                3.103254       0.515452
                                                         2.893835       0.375311
                                                         1.106151      -0.709696
                                                         0.501100      -0.206820
                                                         0.214447       0.029334
                                                         0.074663      -0.017487

                          1       2    3s                3.103254      -0.875938
                                                         2.893835       0.724049
                                                         1.106151       0.004891
                                                         0.501100      -0.102265
                                                         0.214447       0.112240
                                                         0.074663       0.072808

                          1       3    4s                3.103254       1.242271
                                                         2.893835      -0.634091
                                                         1.106151      -0.295874
                                                         0.501100       0.048385
                                                         0.214447      -0.259714
                                                         0.074663       0.168416

                          1       4    5s                3.103254       1.527448
                                                         2.893835      -1.828529
                                                         1.106151       0.428933
                                                         0.501100      -0.354408
                                                         0.214447       0.262525
                                                         0.074663       0.031662

                          1       5    3px               3.103254       7.764877
                                                         2.893835      -6.474970
                                                         1.106151      -0.493909
                                                         0.501100      -0.257407
                                                         0.214447      -0.114658
                                                         0.074663       0.019801
                          1       5    3py               3.103254       7.764877
                                                         2.893835      -6.474970
                                                         1.106151      -0.493909
                                                         0.501100      -0.257407
                                                         0.214447      -0.114658
                                                         0.074663       0.019801
                          1       5    3pz               3.103254       7.764877
                                                         2.893835      -6.474970
                                                         1.106151      -0.493909
                                                         0.501100      -0.257407
                                                         0.214447      -0.114658
                                                         0.074663       0.019801

                          1       6    4px               3.103254      -0.260839
                                                         2.893835       0.341937
                                                         1.106151      -0.318669
                                                         0.501100      -0.024012
                                                         0.214447       0.078848
                                                         0.074663       0.041712
                          1       6    4py               3.103254      -0.260839
                                                         2.893835       0.341937
                                                         1.106151      -0.318669
                                                         0.501100      -0.024012
                                                         0.214447       0.078848
                                                         0.074663       0.041712
                          1       6    4pz               3.103254      -0.260839
                                                         2.893835       0.341937
                                                         1.106151      -0.318669
                                                         0.501100      -0.024012
                                                         0.214447       0.078848
                                                         0.074663       0.041712

                          1       7    5px               3.103254      -1.154222
                                                         2.893835       0.794527
                                                         1.106151       1.639214
                                                         0.501100       0.161364
                                                         0.214447      -0.219372
                                                         0.074663       0.043935
                          1       7    5py               3.103254      -1.154222
                                                         2.893835       0.794527
                                                         1.106151       1.639214
                                                         0.501100       0.161364
                                                         0.214447      -0.219372
                                                         0.074663       0.043935
                          1       7    5pz               3.103254      -1.154222
                                                         2.893835       0.794527
                                                         1.106151       1.639214
                                                         0.501100       0.161364
                                                         0.214447      -0.219372
                                                         0.074663       0.043935

                          1       8    4dx2              3.103254      -0.666177
                                                         2.893835       0.808651
                                                         1.106151       0.592574
                                                         0.501100       0.206731
                                                         0.214447       0.037281
                                                         0.074663       0.002722
                          1       8    4dxy              3.103254      -1.153853
                                                         2.893835       1.400624
                                                         1.106151       1.026368
                                                         0.501100       0.358068
                                                         0.214447       0.064572
                                                         0.074663       0.004715
                          1       8    4dxz              3.103254      -1.153853
                                                         2.893835       1.400624
                                                         1.106151       1.026368
                                                         0.501100       0.358068
                                                         0.214447       0.064572
                                                         0.074663       0.004715
                          1       8    4dy2              3.103254      -0.666177
                                                         2.893835       0.808651
                                                         1.106151       0.592574
                                                         0.501100       0.206731
                                                         0.214447       0.037281
                                                         0.074663       0.002722
                          1       8    4dyz              3.103254      -1.153853
                                                         2.893835       1.400624
                                                         1.106151       1.026368
                                                         0.501100       0.358068
                                                         0.214447       0.064572
                                                         0.074663       0.004715
                          1       8    4dz2              3.103254      -0.666177
                                                         2.893835       0.808651
                                                         1.106151       0.592574
                                                         0.501100       0.206731
                                                         0.214447       0.037281
                                                         0.074663       0.002722

                          1       9    5dx2              3.103254      -0.501640
                                                         2.893835       0.331740
                                                         1.106151      -0.610405
                                                         0.501100      -0.248731
                                                         0.214447       0.071042
                                                         0.074663       0.009968
                          1       9    5dxy              3.103254      -0.868866
                                                         2.893835       0.574590
                                                         1.106151      -1.057253
                                                         0.501100      -0.430814
                                                         0.214447       0.123048
                                                         0.074663       0.017265
                          1       9    5dxz              3.103254      -0.868866
                                                         2.893835       0.574590
                                                         1.106151      -1.057253
                                                         0.501100      -0.430814
                                                         0.214447       0.123048
                                                         0.074663       0.017265
                          1       9    5dy2              3.103254      -0.501640
                                                         2.893835       0.331740
                                                         1.106151      -0.610405
                                                         0.501100      -0.248731
                                                         0.214447       0.071042
                                                         0.074663       0.009968
                          1       9    5dyz              3.103254      -0.868866
                                                         2.893835       0.574590
                                                         1.106151      -1.057253
                                                         0.501100      -0.430814
                                                         0.214447       0.123048
                                                         0.074663       0.017265
                          1       9    5dz2              3.103254      -0.501640
                                                         2.893835       0.331740
                                                         1.106151      -0.610405
                                                         0.501100      -0.248731
                                                         0.214447       0.071042
                                                         0.074663       0.009968

                          1      10    6dx2              3.103254       7.800782
                                                         2.893835      -7.616749
                                                         1.106151       0.397584
                                                         0.501100       0.114170
                                                         0.214447      -0.090180
                                                         0.074663       0.023135
                          1      10    6dxy              3.103254      13.511351
                                                         2.893835     -13.192597
                                                         1.106151       0.688635
                                                         0.501100       0.197748
                                                         0.214447      -0.156196
                                                         0.074663       0.040072
                          1      10    6dxz              3.103254      13.511351
                                                         2.893835     -13.192597
                                                         1.106151       0.688635
                                                         0.501100       0.197748
                                                         0.214447      -0.156196
                                                         0.074663       0.040072
                          1      10    6dy2              3.103254       7.800782
                                                         2.893835      -7.616749
                                                         1.106151       0.397584
                                                         0.501100       0.114170
                                                         0.214447      -0.090180
                                                         0.074663       0.023135
                          1      10    6dyz              3.103254      13.511351
                                                         2.893835     -13.192597
                                                         1.106151       0.688635
                                                         0.501100       0.197748
                                                         0.214447      -0.156196
                                                         0.074663       0.040072
                          1      10    6dz2              3.103254       7.800782
                                                         2.893835      -7.616749
                                                         1.106151       0.397584
                                                         0.501100       0.114170
                                                         0.214447      -0.090180
                                                         0.074663       0.023135

                          1      11    5fx3              3.103254      -1.761716
                                                         2.893835       1.954462
                                                         1.106151      -0.301026
                                                         0.501100      -0.156920
                                                         0.214447      -0.019380
                                                         0.074663      -0.000647
                          1      11    5fx2y             3.103254      -3.939317
                                                         2.893835       4.370309
                                                         1.106151      -0.673114
                                                         0.501100      -0.350883
                                                         0.214447      -0.043334
                                                         0.074663      -0.001448
                          1      11    5fx2z             3.103254      -3.939317
                                                         2.893835       4.370309
                                                         1.106151      -0.673114
                                                         0.501100      -0.350883
                                                         0.214447      -0.043334
                                                         0.074663      -0.001448
                          1      11    5fxy2             3.103254      -3.939317
                                                         2.893835       4.370309
                                                         1.106151      -0.673114
                                                         0.501100      -0.350883
                                                         0.214447      -0.043334
                                                         0.074663      -0.001448
                          1      11    5fxyz             3.103254      -6.823098
                                                         2.893835       7.569597
                                                         1.106151      -1.165867
                                                         0.501100      -0.607748
                                                         0.214447      -0.075057
                                                         0.074663      -0.002508
                          1      11    5fxz2             3.103254      -3.939317
                                                         2.893835       4.370309
                                                         1.106151      -0.673114
                                                         0.501100      -0.350883
                                                         0.214447      -0.043334
                                                         0.074663      -0.001448
                          1      11    5fy3              3.103254      -1.761716
                                                         2.893835       1.954462
                                                         1.106151      -0.301026
                                                         0.501100      -0.156920
                                                         0.214447      -0.019380
                                                         0.074663      -0.000647
                          1      11    5fy2z             3.103254      -3.939317
                                                         2.893835       4.370309
                                                         1.106151      -0.673114
                                                         0.501100      -0.350883
                                                         0.214447      -0.043334
                                                         0.074663      -0.001448
                          1      11    5fyz2             3.103254      -3.939317
                                                         2.893835       4.370309
                                                         1.106151      -0.673114
                                                         0.501100      -0.350883
                                                         0.214447      -0.043334
                                                         0.074663      -0.001448
                          1      11    5fz3              3.103254      -1.761716
                                                         2.893835       1.954462
                                                         1.106151      -0.301026
                                                         0.501100      -0.156920
                                                         0.214447      -0.019380
                                                         0.074663      -0.000647

                          1      12    6fx3              3.103254       3.523652
                                                         2.893835      -3.805052
                                                         1.106151       0.562959
                                                         0.501100       0.125270
                                                         0.214447      -0.021481
                                                         0.074663      -0.002929
                          1      12    6fx2y             3.103254       7.879126
                                                         2.893835      -8.508355
                                                         1.106151       1.258815
                                                         0.501100       0.280112
                                                         0.214447      -0.048033
                                                         0.074663      -0.006549
                          1      12    6fx2z             3.103254       7.879126
                                                         2.893835      -8.508355
                                                         1.106151       1.258815
                                                         0.501100       0.280112
                                                         0.214447      -0.048033
                                                         0.074663      -0.006549
                          1      12    6fxy2             3.103254       7.879126
                                                         2.893835      -8.508355
                                                         1.106151       1.258815
                                                         0.501100       0.280112
                                                         0.214447      -0.048033
                                                         0.074663      -0.006549
                          1      12    6fxyz             3.103254      13.647047
                                                         2.893835     -14.736904
                                                         1.106151       2.180331
                                                         0.501100       0.485168
                                                         0.214447      -0.083196
                                                         0.074663      -0.011342
                          1      12    6fxz2             3.103254       7.879126
                                                         2.893835      -8.508355
                                                         1.106151       1.258815
                                                         0.501100       0.280112
                                                         0.214447      -0.048033
                                                         0.074663      -0.006549
                          1      12    6fy3              3.103254       3.523652
                                                         2.893835      -3.805052
                                                         1.106151       0.562959
                                                         0.501100       0.125270
                                                         0.214447      -0.021481
                                                         0.074663      -0.002929
                          1      12    6fy2z             3.103254       7.879126
                                                         2.893835      -8.508355
                                                         1.106151       1.258815
                                                         0.501100       0.280112
                                                         0.214447      -0.048033
                                                         0.074663      -0.006549
                          1      12    6fyz2             3.103254       7.879126
                                                         2.893835      -8.508355
                                                         1.106151       1.258815
                                                         0.501100       0.280112
                                                         0.214447      -0.048033
                                                         0.074663      -0.006549
                          1      12    6fz3              3.103254       3.523652
                                                         2.893835      -3.805052
                                                         1.106151       0.562959
                                                         0.501100       0.125270
                                                         0.214447      -0.021481
                                                         0.074663      -0.002929

     RI Auxiliary Basis Set                                 def2-SVP-RIFIT-mod-3

       Number of orbital shell sets:                                          16
       Number of orbital shells:                                              16
       Number of primitive Cartesian functions:                               16
       Number of Cartesian basis functions:                                   88
       Number of spherical basis functions:                                   66
       Norm type:                                                              2

       Normalised Cartesian orbitals:

                        Set   Shell   Orbital            Exponent    Coefficient

                          1       1    1s                0.238675       0.243369

                          2       1    1fx3              0.253216       0.066959
                          2       1    1fx2y             0.253216       0.149725
                          2       1    1fx2z             0.253216       0.149725
                          2       1    1fxy2             0.253216       0.149725
                          2       1    1fxyz             0.253216       0.259331
                          2       1    1fxz2             0.253216       0.149725
                          2       1    1fy3              0.253216       0.066959
                          2       1    1fy2z             0.253216       0.149725
                          2       1    1fyz2             0.253216       0.149725
                          2       1    1fz3              0.253216       0.066959

                          3       1    1px               0.269126       0.276302
                          3       1    1py               0.269126       0.276302
                          3       1    1pz               0.269126       0.276302

                          4       1    1dx2              0.304026       0.204882
                          4       1    1dxy              0.304026       0.354866
                          4       1    1dxz              0.304026       0.354866
                          4       1    1dy2              0.304026       0.204882
                          4       1    1dyz              0.304026       0.354866
                          4       1    1dz2              0.304026       0.204882

                          5       1    1gx4              0.365033       0.069638
                          5       1    1gx3y             0.365033       0.184246
                          5       1    1gx3z             0.365033       0.184246
                          5       1    1gx2y2            0.365033       0.237860
                          5       1    1gx2yz            0.365033       0.411986
                          5       1    1gx2z2            0.365033       0.237860
                          5       1    1gxy3             0.365033       0.184246
                          5       1    1gxy2z            0.365033       0.411986
                          5       1    1gxyz2            0.365033       0.411986
                          5       1    1gxz3             0.365033       0.184246
                          5       1    1gy4              0.365033       0.069638
                          5       1    1gy3z             0.365033       0.184246
                          5       1    1gy2z2            0.365033       0.237860
                          5       1    1gyz3             0.365033       0.184246
                          5       1    1gz4              0.365033       0.069638

                          6       1    1s                0.424638       0.374908

                          7       1    1s                0.648984       0.515330

                          8       1    1dx2              0.719090       0.924230
                          8       1    1dxy              0.719090       1.600814
                          8       1    1dxz              0.719090       1.600814
                          8       1    1dy2              0.719090       0.924230
                          8       1    1dyz              0.719090       1.600814
                          8       1    1dz2              0.719090       0.924230

                          9       1    1gx4              0.914481       0.870294
                          9       1    1gx3y             0.914481       2.302581
                          9       1    1gx3z             0.914481       2.302581
                          9       1    1gx2y2            0.914481       2.972619
                          9       1    1gx2yz            0.914481       5.148727
                          9       1    1gx2z2            0.914481       2.972619
                          9       1    1gxy3             0.914481       2.302581
                          9       1    1gxy2z            0.914481       5.148727
                          9       1    1gxyz2            0.914481       5.148727
                          9       1    1gxz3             0.914481       2.302581
                          9       1    1gy4              0.914481       0.870294
                          9       1    1gy3z             0.914481       2.302581
                          9       1    1gy2z2            0.914481       2.972619
                          9       1    1gyz3             0.914481       2.302581
                          9       1    1gz4              0.914481       0.870294

                         10       1    1px               0.967490       1.367723
                         10       1    1py               0.967490       1.367723
                         10       1    1pz               0.967490       1.367723

                         11       1    1dx2              1.179750       2.198072
                         11       1    1dxy              1.179750       3.807173
                         11       1    1dxz              1.179750       3.807173
                         11       1    1dy2              1.179750       2.198072
                         11       1    1dyz              1.179750       3.807173
                         11       1    1dz2              1.179750       2.198072

                         12       1    1fx3              1.281070       2.570357
                         12       1    1fx2y             1.281070       5.747492
                         12       1    1fx2z             1.281070       5.747492
                         12       1    1fxy2             1.281070       5.747492
                         12       1    1fxyz             1.281070       9.954948
                         12       1    1fxz2             1.281070       5.747492
                         12       1    1fy3              1.281070       2.570357
                         12       1    1fy2z             1.281070       5.747492
                         12       1    1fyz2             1.281070       5.747492
                         12       1    1fz3              1.281070       2.570357

                         13       1    1s                1.466370       0.949714

                         14       1    1px               1.939290       3.262072
                         14       1    1py               1.939290       3.262072
                         14       1    1pz               1.939290       3.262072

                         15       1    1s                2.101910       1.244144

                         16       1    1dx2              2.484170       8.090526
                         16       1    1dxy              2.484170      14.013202
                         16       1    1dxz              2.484170      14.013202
                         16       1    1dy2              2.484170       8.090526
                         16       1    1dyz              2.484170      14.013202
                         16       1    1dz2              2.484170       8.090526

       Atomic covalent radius [Angstrom]:                                  1.300

       Atomic van der Waals radius [Angstrom]:                             1.670

     GTH Potential information for                                  GTH-PADE-q14

       Description:                       Goedecker-Teter-Hutter pseudopotential
                                           Goedecker et al., PRB 54, 1703 (1996)
                                          Hartwigsen et al., PRB 58, 3641 (1998)
                                                      Krack, TCA 114, 145 (2005)

       Gaussian exponent of the core charge distribution:               1.714678
       Electronic configuration (s p d ...):                           4   6   4

       Parameters of the local part of the GTH pseudopotential:

                          rloc        C1          C2          C3          C4
                        0.540000    4.800251    0.901544

       Parameters of the non-local part of the GTH pseudopotential:

                   l      r(l)      h(i,j,l)

                   0    0.418570    2.692204    2.332557    0.297239
                                    2.332557   -6.022638   -0.767467
                                    0.297239   -0.767467    1.218316
                   1    0.449555   -0.702084    1.036024
                                    1.036024   -2.451680
                   2    0.399602    1.177436    2.448917
                                    2.448917   -5.553621

  2. Atomic kind: Se                                    Number of atoms:     242

     Orbital Basis Set                                       TZV2P-MOLOPT-SR-GTH

       Number of orbital shell sets:                                           1
       Number of orbital shells:                                               8
       Number of primitive Cartesian functions:                                4
       Number of Cartesian basis functions:                                   24
       Number of spherical basis functions:                                   22
       Norm type:                                                              2

       Normalised Cartesian orbitals:

                        Set   Shell   Orbital            Exponent    Coefficient

                          1       1    2s                1.465689       0.494570
                                                         1.029752      -0.180977
                                                         0.303575      -0.216980
                                                         0.107173      -0.053368

                          1       2    3s                1.465689       0.532885
                                                         1.029752      -0.330782
                                                         0.303575       0.006665
                                                         0.107173       0.129622

                          1       3    4s                1.465689       1.121876
                                                         1.029752      -0.920455
                                                         0.303575       0.570550
                                                         0.107173      -0.176214

                          1       4    3px               1.465689       0.107882
                                                         1.029752      -0.079700
                                                         0.303575      -0.126036
                                                         0.107173      -0.058572
                          1       4    3py               1.465689       0.107882
                                                         1.029752      -0.079700
                                                         0.303575      -0.126036
                                                         0.107173      -0.058572
                          1       4    3pz               1.465689       0.107882
                                                         1.029752      -0.079700
                                                         0.303575      -0.126036
                                                         0.107173      -0.058572

                          1       5    4px               1.465689       1.547982
                                                         1.029752      -1.230554
                                                         0.303575      -0.365142
                                                         0.107173       0.068159
                          1       5    4py               1.465689       1.547982
                                                         1.029752      -1.230554
                                                         0.303575      -0.365142
                                                         0.107173       0.068159
                          1       5    4pz               1.465689       1.547982
                                                         1.029752      -1.230554
                                                         0.303575      -0.365142
                                                         0.107173       0.068159

                          1       6    5px               1.465689       3.733852
                                                         1.029752      -2.632709
                                                         0.303575       0.559576
                                                         0.107173      -0.066707
                          1       6    5py               1.465689       3.733852
                                                         1.029752      -2.632709
                                                         0.303575       0.559576
                                                         0.107173      -0.066707
                          1       6    5pz               1.465689       3.733852
                                                         1.029752      -2.632709
                                                         0.303575       0.559576
                                                         0.107173      -0.066707

                          1       7    4dx2              1.465689       0.307774
                                                         1.029752      -0.370040
                                                         0.303575      -0.112586
                                                         0.107173      -0.015926
                          1       7    4dxy              1.465689       0.533081
                                                         1.029752      -0.640929
                                                         0.303575      -0.195005
                                                         0.107173      -0.027585
                          1       7    4dxz              1.465689       0.533081
                                                         1.029752      -0.640929
                                                         0.303575      -0.195005
                                                         0.107173      -0.027585
                          1       7    4dy2              1.465689       0.307774
                                                         1.029752      -0.370040
                                                         0.303575      -0.112586
                                                         0.107173      -0.015926
                          1       7    4dyz              1.465689       0.533081
                                                         1.029752      -0.640929
                                                         0.303575      -0.195005
                                                         0.107173      -0.027585
                          1       7    4dz2              1.465689       0.307774
                                                         1.029752      -0.370040
                                                         0.303575      -0.112586
                                                         0.107173      -0.015926

                          1       8    5dx2              1.465689      -0.987464
                                                         1.029752       1.348321
                                                         0.303575       0.106974
                                                         0.107173      -0.033181
                          1       8    5dxy              1.465689      -1.710337
                                                         1.029752       2.335360
                                                         0.303575       0.185284
                                                         0.107173      -0.057471
                          1       8    5dxz              1.465689      -1.710337
                                                         1.029752       2.335360
                                                         0.303575       0.185284
                                                         0.107173      -0.057471
                          1       8    5dy2              1.465689      -0.987464
                                                         1.029752       1.348321
                                                         0.303575       0.106974
                                                         0.107173      -0.033181
                          1       8    5dyz              1.465689      -1.710337
                                                         1.029752       2.335360
                                                         0.303575       0.185284
                                                         0.107173      -0.057471
                          1       8    5dz2              1.465689      -0.987464
                                                         1.029752       1.348321
                                                         0.303575       0.106974
                                                         0.107173      -0.033181

     RI Auxiliary Basis Set                                 def2-SVP-RIFIT-mod-3

       Number of orbital shell sets:                                          12
       Number of orbital shells:                                              12
       Number of primitive Cartesian functions:                               12
       Number of Cartesian basis functions:                                   44
       Number of spherical basis functions:                                   38
       Norm type:                                                              2

       Normalised Cartesian orbitals:

                        Set   Shell   Orbital            Exponent    Coefficient

                          1       1    1s                0.228146       0.235272

                          2       1    1dx2              0.255873       0.151514
                          2       1    1dxy              0.255873       0.262430
                          2       1    1dxz              0.255873       0.262430
                          2       1    1dy2              0.255873       0.151514
                          2       1    1dyz              0.255873       0.262430
                          2       1    1dz2              0.255873       0.151514

                          3       1    1px               0.271607       0.279490
                          3       1    1py               0.271607       0.279490
                          3       1    1pz               0.271607       0.279490

                          4       1    1s                0.368618       0.337165

                          5       1    1dx2              0.492940       0.477308
                          5       1    1dxy              0.492940       0.826723
                          5       1    1dxz              0.492940       0.826723
                          5       1    1dy2              0.492940       0.477308
                          5       1    1dyz              0.492940       0.826723
                          5       1    1dz2              0.492940       0.477308

                          6       1    1px               0.522961       0.633908
                          6       1    1py               0.522961       0.633908
                          6       1    1pz               0.522961       0.633908

                          7       1    1s                0.572587       0.469128

                          8       1    1fx3              0.711060       0.683508
                          8       1    1fx2y             0.711060       1.528371
                          8       1    1fx2z             0.711060       1.528371
                          8       1    1fxy2             0.711060       1.528371
                          8       1    1fxyz             0.711060       2.647216
                          8       1    1fxz2             0.711060       1.528371
                          8       1    1fy3              0.711060       0.683508
                          8       1    1fy2z             0.711060       1.528371
                          8       1    1fyz2             0.711060       1.528371
                          8       1    1fz3              0.711060       0.683508

                          9       1    1px               1.002555       1.429965
                          9       1    1py               1.002555       1.429965
                          9       1    1pz               1.002555       1.429965

                         10       1    1dx2              1.339632       2.745579
                         10       1    1dxy              1.339632       4.755483
                         10       1    1dxz              1.339632       4.755483
                         10       1    1dy2              1.339632       2.745579
                         10       1    1dyz              1.339632       4.755483
                         10       1    1dz2              1.339632       2.745579

                         11       1    1px               1.705131       2.777392
                         11       1    1py               1.705131       2.777392
                         11       1    1pz               1.705131       2.777392

                         12       1    1s                2.077977       1.233504

       Atomic covalent radius [Angstrom]:                                  1.160

       Atomic van der Waals radius [Angstrom]:                             1.900

     GTH Potential information for                                   GTH-PADE-q6

       Description:                       Goedecker-Teter-Hutter pseudopotential
                                           Goedecker et al., PRB 54, 1703 (1996)
                                          Hartwigsen et al., PRB 58, 3641 (1998)
                                                      Krack, TCA 114, 145 (2005)

       Gaussian exponent of the core charge distribution:               1.922338
       Electronic configuration (s p d ...):                               2   4

       Parameters of the local part of the GTH pseudopotential:

                          rloc        C1          C2          C3          C4
                        0.510000

       Parameters of the non-local part of the GTH pseudopotential:

                   l      r(l)      h(i,j,l)

                   0    0.432531    5.145131   -0.794740   -0.334051
                                   -0.794740    2.052009    0.862517
                                   -0.334051    0.862517   -1.369203
                   1    0.472473    2.858806    0.249604
                                    0.249604   -0.590670
                   2    0.613420    0.434829


 MOLECULE KIND INFORMATION


 All atoms are their own molecule, skipping detailed information


 TOTAL NUMBERS AND MAXIMUM NUMBERS

  Total number of            - Atomic kinds:                                   2
                             - Atoms:                                        363
                             - Shell sets:                                   363
                             - Shells:                                      3388
                             - Primitive Cartesian functions:               1694
                             - Cartesian basis functions:                  11979
                             - Spherical basis functions:                  10406

  Maximum angular momentum of- Orbital basis functions:                        3
                             - Local part of the GTH pseudopotential:          2
                             - Non-local part of the GTH pseudopotential:      4


 MODULE QUICKSTEP: ATOMIC COORDINATES IN ANGSTROM

   Atom Kind Element         X             Y             Z       Z(eff)     Mass
      1    1 W    74      0.000000      0.000000      2.179276  14.0000 183.8400
      2    2 Se   34      1.659503      0.958115      3.858553   6.0000  78.9600
      3    2 Se   34      1.659503      0.958115      0.500000   6.0000  78.9600
      4    1 W    74      3.319000      0.000000      2.179276  14.0000 183.8400
      5    2 Se   34      4.978503      0.958115      3.858553   6.0000  78.9600
      6    2 Se   34      4.978503      0.958115      0.500000   6.0000  78.9600
      7    1 W    74      6.638000      0.000000      2.179276  14.0000 183.8400
      8    2 Se   34      8.297503      0.958115      3.858553   6.0000  78.9600
      9    2 Se   34      8.297503      0.958115      0.500000   6.0000  78.9600
     10    1 W    74      9.957000      0.000000      2.179276  14.0000 183.8400
     11    2 Se   34     11.616503      0.958115      3.858553   6.0000  78.9600
     12    2 Se   34     11.616503      0.958115      0.500000   6.0000  78.9600
     13    1 W    74     13.276000      0.000000      2.179276  14.0000 183.8400
     14    2 Se   34     14.935503      0.958115      3.858553   6.0000  78.9600
     15    2 Se   34     14.935503      0.958115      0.500000   6.0000  78.9600
     16    1 W    74     16.595000      0.000000      2.179276  14.0000 183.8400
     17    2 Se   34     18.254503      0.958115      3.858553   6.0000  78.9600
     18    2 Se   34     18.254503      0.958115      0.500000   6.0000  78.9600
     19    1 W    74     19.914000      0.000000      2.179276  14.0000 183.8400
     20    2 Se   34     21.573503      0.958115      3.858553   6.0000  78.9600
     21    2 Se   34     21.573503      0.958115      0.500000   6.0000  78.9600
     22    1 W    74     23.233000      0.000000      2.179276  14.0000 183.8400
     23    2 Se   34     24.892503      0.958115      3.858553   6.0000  78.9600
     24    2 Se   34     24.892503      0.958115      0.500000   6.0000  78.9600
     25    1 W    74     26.552000      0.000000      2.179276  14.0000 183.8400
     26    2 Se   34     28.211503      0.958115      3.858553   6.0000  78.9600
     27    2 Se   34     28.211503      0.958115      0.500000   6.0000  78.9600
     28    1 W    74     29.871000      0.000000      2.179276  14.0000 183.8400
     29    2 Se   34     31.530503      0.958115      3.858553   6.0000  78.9600
     30    2 Se   34     31.530503      0.958115      0.500000   6.0000  78.9600
     31    1 W    74     33.190000      0.000000      2.179276  14.0000 183.8400
     32    2 Se   34     34.849503      0.958115      3.858553   6.0000  78.9600
     33    2 Se   34     34.849503      0.958115      0.500000   6.0000  78.9600
     34    1 W    74     -1.659500      2.874338      2.179276  14.0000 183.8400
     35    2 Se   34      0.000003      3.832453      3.858553   6.0000  78.9600
     36    2 Se   34      0.000003      3.832453      0.500000   6.0000  78.9600
     37    1 W    74      1.659500      2.874338      2.179276  14.0000 183.8400
     38    2 Se   34      3.319003      3.832453      3.858553   6.0000  78.9600
     39    2 Se   34      3.319003      3.832453      0.500000   6.0000  78.9600
     40    1 W    74      4.978500      2.874338      2.179276  14.0000 183.8400
     41    2 Se   34      6.638003      3.832453      3.858553   6.0000  78.9600
     42    2 Se   34      6.638003      3.832453      0.500000   6.0000  78.9600
     43    1 W    74      8.297500      2.874338      2.179276  14.0000 183.8400
     44    2 Se   34      9.957003      3.832453      3.858553   6.0000  78.9600
     45    2 Se   34      9.957003      3.832453      0.500000   6.0000  78.9600
     46    1 W    74     11.616500      2.874338      2.179276  14.0000 183.8400
     47    2 Se   34     13.276003      3.832453      3.858553   6.0000  78.9600
     48    2 Se   34     13.276003      3.832453      0.500000   6.0000  78.9600
     49    1 W    74     14.935500      2.874338      2.179276  14.0000 183.8400
     50    2 Se   34     16.595003      3.832453      3.858553   6.0000  78.9600
     51    2 Se   34     16.595003      3.832453      0.500000   6.0000  78.9600
     52    1 W    74     18.254500      2.874338      2.179276  14.0000 183.8400
     53    2 Se   34     19.914003      3.832453      3.858553   6.0000  78.9600
     54    2 Se   34     19.914003      3.832453      0.500000   6.0000  78.9600
     55    1 W    74     21.573500      2.874338      2.179276  14.0000 183.8400
     56    2 Se   34     23.233003      3.832453      3.858553   6.0000  78.9600
     57    2 Se   34     23.233003      3.832453      0.500000   6.0000  78.9600
     58    1 W    74     24.892500      2.874338      2.179276  14.0000 183.8400
     59    2 Se   34     26.552003      3.832453      3.858553   6.0000  78.9600
     60    2 Se   34     26.552003      3.832453      0.500000   6.0000  78.9600
     61    1 W    74     28.211500      2.874338      2.179276  14.0000 183.8400
     62    2 Se   34     29.871003      3.832453      3.858553   6.0000  78.9600
     63    2 Se   34     29.871003      3.832453      0.500000   6.0000  78.9600
     64    1 W    74     31.530500      2.874338      2.179276  14.0000 183.8400
     65    2 Se   34     33.190003      3.832453      3.858553   6.0000  78.9600
     66    2 Se   34     33.190003      3.832453      0.500000   6.0000  78.9600
     67    1 W    74     -3.319000      5.748677      2.179276  14.0000 183.8400
     68    2 Se   34     -1.659497      6.706791      3.858553   6.0000  78.9600
     69    2 Se   34     -1.659497      6.706791      0.500000   6.0000  78.9600
     70    1 W    74      0.000000      5.748677      2.179276  14.0000 183.8400
     71    2 Se   34      1.659503      6.706791      3.858553   6.0000  78.9600
     72    2 Se   34      1.659503      6.706791      0.500000   6.0000  78.9600
     73    1 W    74      3.319000      5.748677      2.179276  14.0000 183.8400
     74    2 Se   34      4.978503      6.706791      3.858553   6.0000  78.9600
     75    2 Se   34      4.978503      6.706791      0.500000   6.0000  78.9600
     76    1 W    74      6.638000      5.748677      2.179276  14.0000 183.8400
     77    2 Se   34      8.297503      6.706791      3.858553   6.0000  78.9600
     78    2 Se   34      8.297503      6.706791      0.500000   6.0000  78.9600
     79    1 W    74      9.957000      5.748677      2.179276  14.0000 183.8400
     80    2 Se   34     11.616503      6.706791      3.858553   6.0000  78.9600
     81    2 Se   34     11.616503      6.706791      0.500000   6.0000  78.9600
     82    1 W    74     13.276000      5.748677      2.179276  14.0000 183.8400
     83    2 Se   34     14.935503      6.706791      3.858553   6.0000  78.9600
     84    2 Se   34     14.935503      6.706791      0.500000   6.0000  78.9600
     85    1 W    74     16.595000      5.748677      2.179276  14.0000 183.8400
     86    2 Se   34     18.254503      6.706791      3.858553   6.0000  78.9600
     87    2 Se   34     18.254503      6.706791      0.500000   6.0000  78.9600
     88    1 W    74     19.914000      5.748677      2.179276  14.0000 183.8400
     89    2 Se   34     21.573503      6.706791      3.858553   6.0000  78.9600
     90    2 Se   34     21.573503      6.706791      0.500000   6.0000  78.9600
     91    1 W    74     23.233000      5.748677      2.179276  14.0000 183.8400
     92    2 Se   34     24.892503      6.706791      3.858553   6.0000  78.9600
     93    2 Se   34     24.892503      6.706791      0.500000   6.0000  78.9600
     94    1 W    74     26.552000      5.748677      2.179276  14.0000 183.8400
     95    2 Se   34     28.211503      6.706791      3.858553   6.0000  78.9600
     96    2 Se   34     28.211503      6.706791      0.500000   6.0000  78.9600
     97    1 W    74     29.871000      5.748677      2.179276  14.0000 183.8400
     98    2 Se   34     31.530503      6.706791      3.858553   6.0000  78.9600
     99    2 Se   34     31.530503      6.706791      0.500000   6.0000  78.9600
    100    1 W    74     -4.978500      8.623015      2.179276  14.0000 183.8400
    101    2 Se   34     -3.318997      9.581130      3.858553   6.0000  78.9600
    102    2 Se   34     -3.318997      9.581130      0.500000   6.0000  78.9600
    103    1 W    74     -1.659500      8.623015      2.179276  14.0000 183.8400
    104    2 Se   34      0.000003      9.581130      3.858553   6.0000  78.9600
    105    2 Se   34      0.000003      9.581130      0.500000   6.0000  78.9600
    106    1 W    74      1.659500      8.623015      2.179276  14.0000 183.8400
    107    2 Se   34      3.319003      9.581130      3.858553   6.0000  78.9600
    108    2 Se   34      3.319003      9.581130      0.500000   6.0000  78.9600
    109    1 W    74      4.978500      8.623015      2.179276  14.0000 183.8400
    110    2 Se   34      6.638003      9.581130      3.858553   6.0000  78.9600
    111    2 Se   34      6.638003      9.581130      0.500000   6.0000  78.9600
    112    1 W    74      8.297500      8.623015      2.179276  14.0000 183.8400
    113    2 Se   34      9.957003      9.581130      3.858553   6.0000  78.9600
    114    2 Se   34      9.957003      9.581130      0.500000   6.0000  78.9600
    115    1 W    74     11.616500      8.623015      2.179276  14.0000 183.8400
    116    2 Se   34     13.276003      9.581130      3.858553   6.0000  78.9600
    117    2 Se   34     13.276003      9.581130      0.500000   6.0000  78.9600
    118    1 W    74     14.935500      8.623015      2.179276  14.0000 183.8400
    119    2 Se   34     16.595003      9.581130      3.858553   6.0000  78.9600
    120    2 Se   34     16.595003      9.581130      0.500000   6.0000  78.9600
    121    1 W    74     18.254500      8.623015      2.179276  14.0000 183.8400
    122    2 Se   34     19.914003      9.581130      3.858553   6.0000  78.9600
    123    2 Se   34     19.914003      9.581130      0.500000   6.0000  78.9600
    124    1 W    74     21.573500      8.623015      2.179276  14.0000 183.8400
    125    2 Se   34     23.233003      9.581130      3.858553   6.0000  78.9600
    126    2 Se   34     23.233003      9.581130      0.500000   6.0000  78.9600
    127    1 W    74     24.892500      8.623015      2.179276  14.0000 183.8400
    128    2 Se   34     26.552003      9.581130      3.858553   6.0000  78.9600
    129    2 Se   34     26.552003      9.581130      0.500000   6.0000  78.9600
    130    1 W    74     28.211500      8.623015      2.179276  14.0000 183.8400
    131    2 Se   34     29.871003      9.581130      3.858553   6.0000  78.9600
    132    2 Se   34     29.871003      9.581130      0.500000   6.0000  78.9600
    133    1 W    74     -6.638000     11.497353      2.179276  14.0000 183.8400
    134    2 Se   34     -4.978497     12.455468      3.858553   6.0000  78.9600
    135    2 Se   34     -4.978497     12.455468      0.500000   6.0000  78.9600
    136    1 W    74     -3.319000     11.497353      2.179276  14.0000 183.8400
    137    2 Se   34     -1.659497     12.455468      3.858553   6.0000  78.9600
    138    2 Se   34     -1.659497     12.455468      0.500000   6.0000  78.9600
    139    1 W    74      0.000000     11.497353      2.179276  14.0000 183.8400
    140    2 Se   34      1.659503     12.455468      3.858553   6.0000  78.9600
    141    2 Se   34      1.659503     12.455468      0.500000   6.0000  78.9600
    142    1 W    74      3.319000     11.497353      2.179276  14.0000 183.8400
    143    2 Se   34      4.978503     12.455468      3.858553   6.0000  78.9600
    144    2 Se   34      4.978503     12.455468      0.500000   6.0000  78.9600
    145    1 W    74      6.638000     11.497353      2.179276  14.0000 183.8400
    146    2 Se   34      8.297503     12.455468      3.858553   6.0000  78.9600
    147    2 Se   34      8.297503     12.455468      0.500000   6.0000  78.9600
    148    1 W    74      9.957000     11.497353      2.179276  14.0000 183.8400
    149    2 Se   34     11.616503     12.455468      3.858553   6.0000  78.9600
    150    2 Se   34     11.616503     12.455468      0.500000   6.0000  78.9600
    151    1 W    74     13.276000     11.497353      2.179276  14.0000 183.8400
    152    2 Se   34     14.935503     12.455468      3.858553   6.0000  78.9600
    153    2 Se   34     14.935503     12.455468      0.500000   6.0000  78.9600
    154    1 W    74     16.595000     11.497353      2.179276  14.0000 183.8400
    155    2 Se   34     18.254503     12.455468      3.858553   6.0000  78.9600
    156    2 Se   34     18.254503     12.455468      0.500000   6.0000  78.9600
    157    1 W    74     19.914000     11.497353      2.179276  14.0000 183.8400
    158    2 Se   34     21.573503     12.455468      3.858553   6.0000  78.9600
    159    2 Se   34     21.573503     12.455468      0.500000   6.0000  78.9600
    160    1 W    74     23.233000     11.497353      2.179276  14.0000 183.8400
    161    2 Se   34     24.892503     12.455468      3.858553   6.0000  78.9600
    162    2 Se   34     24.892503     12.455468      0.500000   6.0000  78.9600
    163    1 W    74     26.552000     11.497353      2.179276  14.0000 183.8400
    164    2 Se   34     28.211503     12.455468      3.858553   6.0000  78.9600
    165    2 Se   34     28.211503     12.455468      0.500000   6.0000  78.9600
    166    1 W    74     -8.297500     14.371692      2.179276  14.0000 183.8400
    167    2 Se   34     -6.637997     15.329806      3.858553   6.0000  78.9600
    168    2 Se   34     -6.637997     15.329806      0.500000   6.0000  78.9600
    169    1 W    74     -4.978500     14.371692      2.179276  14.0000 183.8400
    170    2 Se   34     -3.318997     15.329806      3.858553   6.0000  78.9600
[...]
 flops max/rank                     87.324877E+09       0.9%     99.1%      0.0%
 matmuls inhomo. stacks                      3200     100.0%      0.0%      0.0%
 matmuls total                          221570055       0.0%    100.0%      0.0%
 number of processed stacks              69366040       0.0%    100.0%      0.0%
 average stack size                                     1.0       3.2       0.0
 marketing flops                    28.448385E+12
 -------------------------------------------------------------------------------
 # multiplications                             85
 max memory usage/rank             907.718656E+06
 # max total images/rank                        1
 # max 3D layers                                1
 # MPI messages exchanged                10608000
 MPI messages size (bytes):
  total size                         5.711039E+12
  min size                           0.000000E+00
  max size                         645.120000E+03
  average size                     538.371000E+03
 MPI breakdown and total messages size (bytes):
             size <=      128               39000                        0
       128 < size <=     8192                   0                        0
      8192 < size <=    32768                   0                        0
     32768 < size <=   131072               23400               1396068960
    131072 < size <=  4194304            10545600            5709642832608
   4194304 < size <= 16777216                   0                        0
  16777216 < size                               0                        0
 -------------------------------------------------------------------------------
 -                                                                             -
 -                      DBCSR MESSAGE PASSING PERFORMANCE                      -
 -                                                                             -
 -------------------------------------------------------------------------------
 ROUTINE             CALLS      AVE VOLUME [Bytes]
 MP_Bcast               84                     12.
 MP_Allreduce          775                     12.
 MP_Alltoall        101327                6595386.
 MP_ISend            13600                 260619.
 MP_IRecv            13600                 259812.
 -------------------------------------------------------------------------------

 -------------------------------------------------------------------------------
 -                                                                             -
 -                                DBM STATISTICS                               -
 -                                                                             -
 -------------------------------------------------------------------------------
    M  x    N  x    K                                          COUNT     PERCENT
   ??  x  ???  x   ??                                    10337782656       0.99%
   ??  x   ??  x >999                                     1677892542       0.16%
  ???  x   ??  x   ??                                   147541345498      14.10%
    ?  x    ?  x    ?                                   331558415849      31.69%
    ?  x >999  x    ?                                    26073402055       2.49%
    ?  x    ?  x >999                                    21442585971       2.05%
    ?  x  ???  x    ?                                   124462733358      11.90%
   ??  x   ??  x  ???                                   124330534208      11.88%
   ??  x  ???  x    ?                                    38419107396       3.67%
   ??  x >999  x    ?                                     8045465536       0.77%
    ?  x  ???  x   ??                                    33501215646       3.20%
    ?  x >999  x   ??                                     7379564252       0.71%
    ?  x   ??  x  ???                                    28185075300       2.69%
   ??  x >999  x   ??                                     2276616456       0.22%
    ?  x    ?  x  ???                                   101056590702       9.66%
   ??  x    ?  x  ???                                    27950886873       2.67%
    ?  x   ??  x >999                                     6017225005       0.58%
   ??  x    ?  x >999                                     5982044927       0.57%
 -------------------------------------------------------------------------------

 -------------------------------------------------------------------------------
 -                                                                             -
 -                                GRID STATISTICS                              -
 -                                                                             -
 -------------------------------------------------------------------------------
 LP    KERNEL             BACKEND                              COUNT     PERCENT
 5     collocate general  REF                               33114312      24.22%
 5     integrate general  REF                               33114312      24.22%
 4     collocate general  REF                               21405384      15.66%
 4     integrate general  REF                               21405384      15.66%
 6     collocate general  REF                               12959100       9.48%
 6     integrate general  REF                               12959100       9.48%
 0     collocate general  REF                                1161600       0.85%
 0     integrate general  REF                                 580800       0.42%
 -------------------------------------------------------------------------------

 MEMORY| Estimated peak process memory [MiB]                                5081

 -------------------------------------------------------------------------------
 ----                             MULTIGRID INFO                            ----
 -------------------------------------------------------------------------------
 count for grid        1:       37016465          cutoff [a.u.]          250.00
 count for grid        2:       23607036          cutoff [a.u.]           83.33
 count for grid        3:        8343839          cutoff [a.u.]           27.78
 count for grid        4:        2406297          cutoff [a.u.]            9.26
 total gridlevel count  :       71373637

 -------------------------------------------------------------------------------
 -                                                                             -
 -                         MESSAGE PASSING PERFORMANCE                         -
 -                                                                             -
 -------------------------------------------------------------------------------

 ROUTINE             CALLS      AVE VOLUME [Bytes]
 MP_Group             5955
 MP_Bcast             8186                 922568.
 MP_Allreduce        12501                  19008.
 MP_Sync              9754
 MP_Alltoall          5347
 MP_SendRecv        268632                   8640.
 MP_ISendRecv       268632                   8640.
 MP_Wait            300458
 MP_comm_split        3474
 MP_ISend          1073266                 307760.
 MP_IRecv           786102                 313916.
 -------------------------------------------------------------------------------


 -------------------------------------------------------------------------------
 -                                                                             -
 -                           R E F E R E N C E S                               -
 -                                                                             -
 -------------------------------------------------------------------------------
 
 CP2K version 2023.1 (Development Version), the CP2K developers group (2023).
 CP2K is freely available from https://www.cp2k.org/ .

 Kuehne,Thomas D.; Iannuzzi,Marcella; Del Ben,Mauro;
 Rybkin,Vladimir V.; Seewald,Patrick; Stein,Frederick; Laino,Teodoro;
 Khaliullin,Rustam Z.; Schuett,Ole; Schiffmann,Florian; Golze,Dorothea;
 Wilhelm,Jan; Chulkov,Sergey; Bani-Hashemian,Mohammad Hossein;
 Weber,Valery; Borstnik,Urban; Taillefumier,Mathieu;
 Jakobovits,Alice Shoshana; Lazzaro,Alfio; Pabst,Hans; Mueller,Tiziano;
 Schade,Robert; Guidon,Manuel; Andermatt,Samuel; Holmberg,Nico;
 Schenter,Gregory K.; Hehn,Anna; Bussy,Augustin; Belleflamme,Fabian;
 Tabacchi,Gloria; Gloess,Andreas; Lass,Michael; Bethune,Iain;
 Mundy,Christopher J.; Plessl,Christian; Watkins,Matt;
 VandeVondele,Joost; Krack,Matthias; Hutter,Juerg. 
 The Journal of Chemical Physics, 152 (19), (2020). 
 CP2K: An electronic structure and molecular dynamics software package -
 Quickstep: Efficient and accurate electronic structure calculations.
 https://doi.org/10.1063/5.0007045

 Wilhelm, J; Golze, D; Talirz, L; Hutter, J; Pignedoli, CA. 
 JOURNAL OF PHYSICAL CHEMISTRY LETTERS, 9, 306-312 (2018). 
 Toward GW calculations on thousands of atoms.
 https://doi.org/10.1021/acs.jpclett.7b02740

 Wilhelm, J; Hutter, J. PHYSICAL REVIEW B, 95, 235123 (2017). 
 Periodic GW calculations in the Gaussian and plane-waves scheme.
 https://doi.org/10.1103/PhysRevB.95.235123

 Wilhelm, J; Del Ben, M; Hutter, J. 
 JOURNAL OF CHEMICAL THEORY AND COMPUTATION, 12, 3623-3635 (2016). 
 GW in the Gaussian and plane waves scheme with application to linear acenes.
 https://doi.org/10.1021/acs.jctc.6b00380

 Wilhelm, J; Seewald, P; Del Ben, M; Hutter, J. 
 JOURNAL OF CHEMICAL THEORY AND COMPUTATION, 12, 5851-5859 (2016). 
 Large-Scale Cubic-Scaling Random Phase Approximation Correlation.
 https://doi.org/10.1021/acs.jctc.6b00840

 Schuett, Ole; Messmer, Peter; Hutter, Juerg; VandeVondele, Joost. 
 Electronic Structure Calculations on Graphics Processing Units, John
 Wiley & Sons, Ltd, 173-190 (2016). 
 GPU-Accelerated Sparse Matrix-Matrix Multiplication for
 Linear Scaling Density Functional Theory.
 https://doi.org/10.1002/9781118670712.ch8

 Heinecke, A; Henry, G; Hutchinson, M; Pabst, H. 
 Proceedings of Intl. Supercomputing Conference, 981-991 (2016). 
 LIBXSMM: Accelerating Small Matrix Multiplications
 by Runtime Code Generation.
 https://doi.org/10.1109/SC.2016.83

 Del Ben, M; Schuett, O; Wentz, T; Messmer, P; Hutter, J;
 VandeVondele, J. 
 COMPUTER PHYSICS COMMUNICATIONS, 187, 120-129 (2015). 
 Enabling simulation at the fifth rung of DFT: Large scale RPA
 calculations with excellent time to solution.
 https://doi.org/10.1016/j.cpc.2014.10.021

 Borstnik, U; VandeVondele, J; Weber, V; Hutter, J. 
 PARALLEL COMPUTING, 40 (5-6), 47-58 (2014). 
 Sparse matrix multiplication: The distributed block-compressed sparse
 row library.
 https://doi.org/10.1016/j.parco.2014.03.012

 Hutter, J; Iannuzzi, M; Schiffmann, F; VandeVondele, J. 
 WIREs Comput Mol Sci., 4 (1), 15-25 (2014). 
 CP2K: atomistic simulations of condensed matter systems.
 https://doi.org/10.1002/wcms.1159

 Marek, A; Blum, V; Johanni, R; Havu, V; Lang, B; Auckenthaler, T;
 Heinecke, A; Bungartz, H; Lederer, H. 
 Journal of Physics: Condensed Matter, 26 (21), (2014). 
 The ELPA library: scalable parallel eigenvalue solutions for
 electronic structure
 theory and computational science.
 https://doi.org/10.1088/0953-8984/26/21/213201

 Del Ben, M; Hutter, J; VandeVondele, J. 
 JOURNAL OF CHEMICAL THEORY AND COMPUTATION, 9 (6), 2654-2671 (2013). 
 Electron Correlation in the Condensed Phase from a Resolution of
 Identity Approach Based on the Gaussian and Plane Waves Scheme.
 https://doi.org/10.1021/ct4002202

 Del Ben, M; Hutter, J; VandeVondele, J. 
 JOURNAL OF CHEMICAL THEORY AND COMPUTATION, 8 (11), 4177-4188 (2012). 
 Second-Order Moller-Plesset Perturbation Theory in the Condensed Phase:
 An Efficient and Massively Parallel Gaussian and Plane Waves Approach.
 https://doi.org/10.1021/ct300531w

 VandeVondele, J; Hutter, J. 
 JOURNAL OF CHEMICAL PHYSICS, 127 (11), 114105 (2007). 
 Gaussian basis sets for accurate calculations on molecular systems in
 gas and condensed phases.
 https://doi.org/10.1063/1.2770708

 Krack, M. 
 THEORETICAL CHEMISTRY ACCOUNTS, 114 (1-3), 145-152 (2005). 
 Pseudopotentials for H to Kr optimized for gradient-corrected
 exchange-correlation functionals.
 https://doi.org/10.1007/s00214-005-0655-y

 VandeVondele, J; Krack, M; Mohamed, F; Parrinello, M; Chassaing, T;
 Hutter, J. COMPUTER PHYSICS COMMUNICATIONS, 167 (2), 103-128 (2005). 
 QUICKSTEP: Fast and accurate density functional calculations using a
 mixed Gaussian and plane waves approach.
 https://doi.org/10.1016/j.cpc.2004.12.014

 Frigo, M; Johnson, SG. 
 PROCEEDINGS OF THE IEEE, 93 (2), 216-231 (2005). 
 The design and implementation of FFTW3.
 https://doi.org/10.1109/JPROC.2004.840301

 Hartwigsen, C; Goedecker, S; Hutter, J. 
 PHYSICAL REVIEW B, 58 (7), 3641-3662 (1998). 
 Relativistic separable dual-space Gaussian pseudopotentials from H to Rn.
 https://doi.org/10.1103/PhysRevB.58.3641

 Lippert, G; Hutter, J; Parrinello, M. 
 MOLECULAR PHYSICS, 92 (3), 477-487 (1997). 
 A hybrid Gaussian and plane wave density functional scheme.
 https://doi.org/10.1080/002689797170220

 Goedecker, S; Teter, M; Hutter, J. 
 PHYSICAL REVIEW B, 54 (3), 1703-1710 (1996). 
 Separable dual-space Gaussian pseudopotentials.
 https://doi.org/10.1103/PhysRevB.54.1703


 -------------------------------------------------------------------------------
 -                                                                             -
 -                                T I M I N G                                  -
 -                                                                             -
 -------------------------------------------------------------------------------
 SUBROUTINE                       CALLS  ASD         SELF TIME        TOTAL TIME
                                MAXIMUM       AVERAGE  MAXIMUM  AVERAGE  MAXIMUM
 CP2K                                 1  1.0     0.01     0.07 10882.70 10882.76
 qs_energies                          1  2.0     0.00     0.01 10882.11 10882.18
 mp2_main                             1  3.0     0.00     0.00 10672.56 10672.63
 mp2_gpw_main                         1  4.0     0.00     0.00 10670.37 10670.44
 rpa_ri_compute_en                    1  5.0     0.00     0.00 10132.93 10133.00
 rpa_num_int                          1  6.0     0.00     0.00  9642.25  9642.32
 dbt_total                         1907  9.8     0.01     0.02  5090.55  5090.60
 dbt_contract                       765 11.0     0.05     0.07  4590.35  4592.81
 dbt_tas_total                     1206 13.4    27.67    33.09  4518.01  4518.07
 dbt_tas_multiply                  1065 12.8     0.00     0.00  4513.50  4513.55
 compute_QP_energies                  1  7.0     0.01     0.03  4100.15  4100.17
 compute_self_energy_cubic_gw_k       1  8.0     0.10     0.12  4099.95  4099.99
 rpa_num_int_RPA_matrix_operati      10  7.0     0.00     0.00  3354.55  3354.58
 invert_eps_compute_W_and_Erpa_      10  8.0     0.00     0.00  3354.52  3354.54
 dbt_tas_dbm                       1065 14.8     0.00     0.00  2923.77  2923.79
 dbm_multiply                      1065 16.8  2352.87  2579.87  2352.87  2579.87
 cp_cfm_heevd                       441 10.2  2413.73  2415.10  2413.73  2415.10
 compute_Q_kp_RPA                   260  9.0     0.10     0.15  2395.21  2395.54
 cp_cfm_power                       312  9.7     0.28     0.32  2314.24  2314.67
 parallel_gemm_cfm                 4194 10.2     0.01     0.01  2284.96  2298.28
 parallel_gemm_cfm_cosma           4194 11.2  2284.95  2298.27  2284.95  2298.27
 compute_mat_P_omega                  1  7.0     0.00     0.01  2180.82  2180.84
 compute_mat_P_omega_contract        10  8.0     2.79     3.52  2158.80  2158.82
 contract_to_self_energy            198  9.0     0.00     0.01  1855.16  1855.83
 dbt_tas_mm_2                       289 15.0     0.00     0.00  1479.89  1479.90
 mp_sync                           9754 12.7   848.82  1336.74   848.82  1336.74
 tensor_operation_3c_W               99  9.0     0.00     0.00  1093.89  1094.54
 trafo_to_mo_and_kpoints             21  9.0     0.33     0.42  1079.40  1079.41
 mp_waitall_2                      5563 16.7   844.12  1005.95   844.12  1005.95
 compute_Wc_real_space_tau_GW       260  9.0     0.00     0.00   842.88   843.02
 compute_mat_P_omega_calc_P_t        90  9.0     0.00     0.00   828.85   828.85
 compute_mat_P_omega_calc_M_occ      90  9.0     2.81     3.52   687.81   687.83
 dbt_tas_communicate_buffer        1957 17.2     0.33     0.52   631.77   668.65
 dbt_tas_mm_3N                      198 16.5     0.00     0.00   515.20   653.42
 dbt_tas_replicate                  929 15.0    25.50    73.11   622.60   652.93
 dbt_tas_replicate_communicate_     717 16.3     0.07     0.12   581.23   612.20
 mp_isend_dv                     542047 16.6   131.32   604.34   131.32   604.34
 dbm_redistribute                  2394 15.8   475.34   575.55   475.34   575.55
 compute_Wc_real_space_tau_GW_3     260 10.0     0.00     0.00   533.53   544.29
 mp2_ri_gpw_compute_in                1  5.0     0.00     0.00   537.43   537.43
 get_2c_integrals                     1  6.0     0.00     0.00   518.58   518.58
 get_bandstruc_and_k_dependent_       1  6.0     0.00     0.00   490.67   490.68
 create_kp_and_calc_kp_orbitals       3  7.0     0.00     0.01   490.67   490.68
 cp_cfm_geeig                       129  8.0     0.00     0.00   463.99   464.28
 dbt_copy                           951 10.8     0.06     0.08   407.57   454.59
 dbt_reshape                        931 11.8    48.31    55.72   405.25   452.22
 convert_to_new_pgrid              3195 14.8    34.20    63.90   347.22   418.75
 inversion_of_M_and_mult_with_c       1  7.0     0.00     0.00   412.83   412.83
 dbt_communicate_buffer             931 12.8     0.19     0.21   344.58   390.43
 compute_Wc_real_space_tau_GW_2     260 10.0     0.02     0.02   301.53   386.45
 dbt_tas_mm_3T                      396 16.5     0.00     0.00   304.49   368.98
 compute_mat_P_omega_calc_M_vir      90  9.0     0.00     0.00   366.28   366.28
 cp_cfm_cholesky_invert             260 11.0   290.66   290.96   290.66   290.96
 dbt_tas_mm_1N                      182 15.0     0.00     0.00   205.16   256.13
 scf_env_do_scf                       1  3.0     0.00     0.00   206.88   207.44
 scf_env_do_scf_inner_loop           83  4.0     0.00     0.00   206.88   207.44
 qs_scf_new_mos                      83  5.0     0.00     0.00   131.37   131.87
 mp_alltoall_d11v                 46929 12.8   107.42   127.79   107.42   127.79
 mp_sum_l                          6887 13.8    88.37   127.56    88.37   127.56
 eigensolver                         84  6.0     0.01     0.01   125.74   125.87
 compute_mat_P_omega_copy_M_occ      90  9.0     0.00     0.00   121.57   121.77
 real_space_to_kpoint_transform      37  9.8     3.18     3.79   116.01   116.04
 dbcsr_new_transposed              7532 10.8     0.33     0.39   112.22   112.38
 dbcsr_redistribute                7448 11.9     1.50     1.82   111.81   111.98
 cp_fm_diag_elpa                     84  7.0     0.00     0.00   111.30   111.38
 cp_fm_diag_elpa_base                84  8.0   111.07   111.19   111.24   111.24
 -------------------------------------------------------------------------------

 The number of warnings for this run is : 2
 
 -------------------------------------------------------------------------------
  **** **** ******  **  PROGRAM ENDED AT                 2023-05-27 04:58:31.124
 ***** ** ***  *** **   PROGRAM RAN ON                                  n2cn0349
 **    ****   ******    PROGRAM RAN BY                                  eprop2d1
 ***** **    ** ** **   PROGRAM PROCESS ID                                885774
  **** **  *******  **  PROGRAM STOPPED IN /scratch/hpc-prf-eprop2d/eprop2d1_Jan
                                           /02_MoS2_MoSe2_WS2_WSe2/4_WSe2/11x11_
                                           PBE/1_reg_RI_1e-2_TZV2P_standard_RI_g
                                           ap
