 DBCSR| CPU Multiplication driver                                           XSMM (U)
 DBCSR| Multrec recursion limit                                              512 (U)
 DBCSR| Multiplication stack size                                           1000 (D)
 DBCSR| Maximum elements for images                                    UNLIMITED (U)
 DBCSR| Multiplicative factor virtual images                                   1 (U)
 DBCSR| Use multiplication densification                                       T (D)
 DBCSR| Multiplication size stacks                                             3 (U)
 DBCSR| Use memory pool for CPU allocation                                     F (U)
 DBCSR| Number of 3D layers                                               SINGLE (U)
 DBCSR| Use MPI memory allocation                                              F (U)
 DBCSR| Use RMA algorithm                                                      F (U)
 DBCSR| Use Communication thread                                               T (U)
 DBCSR| Communication thread load                                             75 (D)
 DBCSR| MPI: My process id                                                     0
 DBCSR| MPI: Number of processes                                            1920
 DBCSR| OMP: Current number of threads                                         4
 DBCSR| OMP: Max number of threads                                             4
 DBCSR| Split modifier for TAS multiplication algorithm                  1.0E+00 (U)


  **** **** ******  **  PROGRAM STARTED AT               2023-05-25 12:12:29.765
 ***** ** ***  *** **   PROGRAM STARTED ON                              n2cn0175
 **    ****   ******    PROGRAM STARTED BY                              eprop2d1
 ***** **    ** ** **   PROGRAM PROCESS ID                                604810
  **** **  *******  **  PROGRAM STARTED IN /scratch/hpc-prf-eprop2d/eprop2d1_Jan
                                           /02_MoS2_MoSe2_WS2_WSe2/3_WS2/10x10_w
                                           ith_PBE/12_reg_RI_1e-2_TZV2P_bigger_R
                                           I

 CP2K| version string:                 CP2K version 2023.1 (Development Version)
 CP2K| source code revision number:                                  git:a5f008f
 CP2K| cp2kflags: omp libint fftw3 libxc elpa parallel scalapack cosma xsmm plum
 CP2K|            ed2 spglib sirius libvori libbqb libvdwxc
 CP2K| is freely available from                            https://www.cp2k.org/
 CP2K| Program compiled at                         Tue Apr 11 10:47:55 CEST 2023
 CP2K| Program compiled on                                              n2login5
 CP2K| Program compiled for                                                local
 CP2K| Data directory path    /opt/software/pc2/EB-SW/software/CP2K/2023.1-foss-
 CP2K| Input file name                                                    GW.inp

 GLOBAL| Force Environment number                                              1
 GLOBAL| Basis set file name                                        BASIS_MOLOPT
 GLOBAL| Potential file name                                      GTH_POTENTIALS
 GLOBAL| MM Potential file name                                     MM_POTENTIAL
 GLOBAL| Coordinate file name                                      __STD_INPUT__
 GLOBAL| Method name                                                        CP2K
 GLOBAL| Project name                                                       MoS2
 GLOBAL| Run type                                                         ENERGY
 GLOBAL| FFT library                                                       FFTW3
 GLOBAL| Diagonalization library                                            ELPA
 GLOBAL| DGEMM library                                                      BLAS
 GLOBAL| Minimum number of eigenvectors for ELPA usage                        16
 GLOBAL| Orthonormality check for eigenvectors                          DISABLED
 GLOBAL| Matrix multiplication library                                     COSMA
 GLOBAL| All-to-all communication in single precision                          F
 GLOBAL| FFTs using library dependent lengths                                  F
 GLOBAL| Grid backend                                                       AUTO
 GLOBAL| Global print level                                               MEDIUM
 GLOBAL| MPI I/O enabled                                                       T
 GLOBAL| Total number of message passing processes                          1920
 GLOBAL| Number of threads for this process                                    4
 GLOBAL| This output is from process                                           0
 GLOBAL| Stack size for threads created by OpenMP (OMP_STACKSIZE)        default
 GLOBAL| CPU model name                          AMD EPYC 7763 64-Core Processor
 GLOBAL| CPUID                                                              1002
 GLOBAL| Compiled for CPUID                                                    0

 *** HINT in environment.F:882 :: The compiler target flags (generic) used ***
 *** to build this binary cannot exploit all extensions of this CPU model  ***
 *** (x86_avx2). Consider compiler target flags as part of FCFLAGS and     ***
 *** CFLAGS (ARCH file).                                                   ***


 MEMORY| system memory details [Kb]
 MEMORY|                        rank 0           min           max       average
 MEMORY| MemTotal            263914148     263914148     263914156     263914150
 MEMORY| MemFree             245639556     205360884     251333016     244710168
 MEMORY| Buffers                328044        118708        358140        298590
 MEMORY| Cached                6090776       3334000      39383020       6793855
 MEMORY| Slab                  5102804       1595164      13250576       5113365
 MEMORY| SReclaimable           297624        208052        580000        309805
 MEMORY| MemLikelyFree       252356000     243185852     256261476     252112420


 *** Fundamental physical constants (SI units) ***

 *** Literature: B. J. Mohr and B. N. Taylor,
 ***             CODATA recommended values of the fundamental physical
 ***             constants: 2006, Web Version 5.1
 ***             http://physics.nist.gov/constants

 Speed of light in vacuum [m/s]                             2.99792458000000E+08
 Magnetic constant or permeability of vacuum [N/A**2]       1.25663706143592E-06
 Electric constant or permittivity of vacuum [F/m]          8.85418781762039E-12
 Planck constant (h) [J*s]                                  6.62606896000000E-34
 Planck constant (h-bar) [J*s]                              1.05457162825177E-34
 Elementary charge [C]                                      1.60217648700000E-19
 Electron mass [kg]                                         9.10938215000000E-31
 Electron g factor [ ]                                     -2.00231930436220E+00
 Proton mass [kg]                                           1.67262163700000E-27
 Fine-structure constant                                    7.29735253760000E-03
 Rydberg constant [1/m]                                     1.09737315685270E+07
 Avogadro constant [1/mol]                                  6.02214179000000E+23
 Boltzmann constant [J/K]                                   1.38065040000000E-23
 Atomic mass unit [kg]                                      1.66053878200000E-27
 Bohr radius [m]                                            5.29177208590000E-11

 *** Conversion factors ***

 [u] -> [a.u.]                                              1.82288848426455E+03
 [Angstrom] -> [Bohr] = [a.u.]                              1.88972613288564E+00
 [a.u.] = [Bohr] -> [Angstrom]                              5.29177208590000E-01
 [a.u.] -> [s]                                              2.41888432650478E-17
 [a.u.] -> [fs]                                             2.41888432650478E-02
 [a.u.] -> [J]                                              4.35974393937059E-18
 [a.u.] -> [N]                                              8.23872205491840E-08
 [a.u.] -> [K]                                              3.15774647902944E+05
 [a.u.] -> [kJ/mol]                                         2.62549961709828E+03
 [a.u.] -> [kcal/mol]                                       6.27509468713739E+02
 [a.u.] -> [Pa]                                             2.94210107994716E+13
 [a.u.] -> [bar]                                            2.94210107994716E+08
 [a.u.] -> [atm]                                            2.90362800883016E+08
 [a.u.] -> [eV]                                             2.72113838565563E+01
 [a.u.] -> [Hz]                                             6.57968392072181E+15
 [a.u.] -> [1/cm] (wave numbers)                            2.19474631370540E+05
 [a.u./Bohr**2] -> [1/cm]                                   5.14048714338585E+03
 

 CELL_TOP| Volume [angstrom^3]:                                     13185.261000
 CELL_TOP| Vector a [angstrom    31.860     0.000     0.000   |a| =    31.860000
 CELL_TOP| Vector b [angstrom   -15.930    27.590     0.000   |b| =    31.858641
 CELL_TOP| Vector c [angstrom     0.000     0.000    15.000   |c| =    15.000000
 CELL_TOP| Angle (b,c), alpha [degree]:                                90.000000
 CELL_TOP| Angle (a,c), beta  [degree]:                                90.000000
 CELL_TOP| Angle (a,b), gamma [degree]:                               120.001411
 CELL_TOP| Numerically orthorhombic:                                          NO
 CELL_TOP| Periodicity                                                        XY

 CELL_UC| Volume [angstrom^3]:                                        131.852610
 CELL_UC| Vector a [angstrom]     3.186     0.000     0.000   |a| =     3.186000
 CELL_UC| Vector b [angstrom]    -1.593     2.759     0.000   |b| =     3.185864
 CELL_UC| Vector c [angstrom]     0.000     0.000    15.000   |c| =    15.000000
 CELL_UC| Angle (b,c), alpha [degree]:                                 90.000000
 CELL_UC| Angle (a,c), beta  [degree]:                                 90.000000
 CELL_UC| Angle (a,b), gamma [degree]:                                120.001411
 CELL_UC| Numerically orthorhombic:                                           NO
 CELL_UC| Periodicity                                                         XY

 GENERATE|  Preliminary Number of Bonds generated:                             0
 GENERATE|  Achieved consistency in connectivity generation.

 CELL| Volume [angstrom^3]:                                         13185.261000
 CELL| Vector a [angstrom]:      31.860     0.000     0.000   |a| =    31.860000
 CELL| Vector b [angstrom]:     -15.930    27.590     0.000   |b| =    31.858641
 CELL| Vector c [angstrom]:       0.000     0.000    15.000   |c| =    15.000000
 CELL| Angle (b,c), alpha [degree]:                                    90.000000
 CELL| Angle (a,c), beta  [degree]:                                    90.000000
 CELL| Angle (a,b), gamma [degree]:                                   120.001411
 CELL| Numerically orthorhombic:                                              NO
 CELL| Periodicity                                                            XY

 CELL_REF| Volume [angstrom^3]:                                     13185.261000
 CELL_REF| Vector a [angstrom    31.860     0.000     0.000   |a| =    31.860000
 CELL_REF| Vector b [angstrom   -15.930    27.590     0.000   |b| =    31.858641
 CELL_REF| Vector c [angstrom     0.000     0.000    15.000   |c| =    15.000000
 CELL_REF| Angle (b,c), alpha [degree]:                                90.000000
 CELL_REF| Angle (a,c), beta  [degree]:                                90.000000
 CELL_REF| Angle (a,b), gamma [degree]:                               120.001411
 CELL_REF| Numerically orthorhombic:                                          NO
 CELL_REF| Periodicity                                                        XY

 *******************************************************************************
 *******************************************************************************
 **                                                                           **
 **     #####                         ##              ##                      **
 **    ##   ##            ##          ##              ##                      **
 **   ##     ##                       ##            ######                    **
 **   ##     ##  ##   ##  ##   #####  ##  ##   ####   ##    #####    #####    **
 **   ##     ##  ##   ##  ##  ##      ## ##   ##      ##   ##   ##  ##   ##   **
 **   ##  ## ##  ##   ##  ##  ##      ####     ###    ##   ######   ######    **
 **    ##  ###   ##   ##  ##  ##      ## ##      ##   ##   ##       ##        **
 **     #######   #####   ##   #####  ##  ##  ####    ##    #####   ##        **
 **           ##                                                    ##        **
 **                                                                           **
 **                                                ... make the atoms dance   **
 **                                                                           **
 **            Copyright (C) by CP2K developers group (2000-2023)             **
 **                      J. Chem. Phys. 152, 194103 (2020)                    **
 **                                                                           **
 *******************************************************************************

 DFT| Spin restricted Kohn-Sham (RKS) calculation                            RKS
 DFT| Multiplicity                                                             1
 DFT| Number of spin states                                                    1
 DFT| Charge                                                                   0
 DFT| Self-interaction correction (SIC)                                       NO
 DFT| Cutoffs: density                                              1.000000E-10
 DFT|          gradient                                             1.000000E-10
 DFT|          tau                                                  1.000000E-10
 DFT|          cutoff_smoothing_range                               0.000000E+00
 DFT| XC density smoothing                                                  NONE
 DFT| XC derivatives                                                          PW

 FUNCTIONAL| PADE:
 FUNCTIONAL| S. Goedecker, M. Teter and J. Hutter, Phys. Rev. B 54, 1703 (1996) 


 QS| Method:                                                                 GPW
 QS| Density plane wave grid type                        NON-SPHERICAL FULLSPACE
 QS| Number of grid levels:                                                    4
 QS| Density cutoff [a.u.]:                                                250.0
 QS| Multi grid cutoff [a.u.]: 1) grid level                               250.0
 QS|                           2) grid level                                83.3
 QS|                           3) grid level                                27.8
 QS|                           4) grid level                                 9.3
 QS| Grid level progression factor:                                          3.0
 QS| Relative density cutoff [a.u.]:                                        50.0
 QS| Interaction thresholds: eps_pgf_orb:                                1.0E-40
 QS|                         eps_filter_matrix:                          0.0E+00
 QS|                         eps_core_charge:                            1.0E-42
 QS|                         eps_rho_gspace:                             1.0E-40
 QS|                         eps_rho_rspace:                             1.0E-40
 QS|                         eps_gvg_rspace:                             1.0E-20
 QS|                         eps_ppl:                                    1.0E-02
 QS|                         eps_ppnl:                                   1.0E-22


 ATOMIC KIND INFORMATION

  1. Atomic kind: W                                     Number of atoms:     100

     Orbital Basis Set                                       TZV2P-MOLOPT-SR-GTH

       Number of orbital shell sets:                                           1
       Number of orbital shells:                                              12
       Number of primitive Cartesian functions:                                6
       Number of Cartesian basis functions:                                   51
       Number of spherical basis functions:                                   42
       Norm type:                                                              2

       Normalised Cartesian orbitals:

                        Set   Shell   Orbital            Exponent    Coefficient

                          1       1    2s                3.103254       0.515452
                                                         2.893835       0.375311
                                                         1.106151      -0.709696
                                                         0.501100      -0.206820
                                                         0.214447       0.029334
                                                         0.074663      -0.017487

                          1       2    3s                3.103254      -0.875938
                                                         2.893835       0.724049
                                                         1.106151       0.004891
                                                         0.501100      -0.102265
                                                         0.214447       0.112240
                                                         0.074663       0.072808

                          1       3    4s                3.103254       1.242271
                                                         2.893835      -0.634091
                                                         1.106151      -0.295874
                                                         0.501100       0.048385
                                                         0.214447      -0.259714
                                                         0.074663       0.168416

                          1       4    5s                3.103254       1.527448
                                                         2.893835      -1.828529
                                                         1.106151       0.428933
                                                         0.501100      -0.354408
                                                         0.214447       0.262525
                                                         0.074663       0.031662

                          1       5    3px               3.103254       7.764877
                                                         2.893835      -6.474970
                                                         1.106151      -0.493909
                                                         0.501100      -0.257407
                                                         0.214447      -0.114658
                                                         0.074663       0.019801
                          1       5    3py               3.103254       7.764877
                                                         2.893835      -6.474970
                                                         1.106151      -0.493909
                                                         0.501100      -0.257407
                                                         0.214447      -0.114658
                                                         0.074663       0.019801
                          1       5    3pz               3.103254       7.764877
                                                         2.893835      -6.474970
                                                         1.106151      -0.493909
                                                         0.501100      -0.257407
                                                         0.214447      -0.114658
                                                         0.074663       0.019801

                          1       6    4px               3.103254      -0.260839
                                                         2.893835       0.341937
                                                         1.106151      -0.318669
                                                         0.501100      -0.024012
                                                         0.214447       0.078848
                                                         0.074663       0.041712
                          1       6    4py               3.103254      -0.260839
                                                         2.893835       0.341937
                                                         1.106151      -0.318669
                                                         0.501100      -0.024012
                                                         0.214447       0.078848
                                                         0.074663       0.041712
                          1       6    4pz               3.103254      -0.260839
                                                         2.893835       0.341937
                                                         1.106151      -0.318669
                                                         0.501100      -0.024012
                                                         0.214447       0.078848
                                                         0.074663       0.041712

                          1       7    5px               3.103254      -1.154222
                                                         2.893835       0.794527
                                                         1.106151       1.639214
                                                         0.501100       0.161364
                                                         0.214447      -0.219372
                                                         0.074663       0.043935
                          1       7    5py               3.103254      -1.154222
                                                         2.893835       0.794527
                                                         1.106151       1.639214
                                                         0.501100       0.161364
                                                         0.214447      -0.219372
                                                         0.074663       0.043935
                          1       7    5pz               3.103254      -1.154222
                                                         2.893835       0.794527
                                                         1.106151       1.639214
                                                         0.501100       0.161364
                                                         0.214447      -0.219372
                                                         0.074663       0.043935

                          1       8    4dx2              3.103254      -0.666177
                                                         2.893835       0.808651
                                                         1.106151       0.592574
                                                         0.501100       0.206731
                                                         0.214447       0.037281
                                                         0.074663       0.002722
                          1       8    4dxy              3.103254      -1.153853
                                                         2.893835       1.400624
                                                         1.106151       1.026368
                                                         0.501100       0.358068
                                                         0.214447       0.064572
                                                         0.074663       0.004715
                          1       8    4dxz              3.103254      -1.153853
                                                         2.893835       1.400624
                                                         1.106151       1.026368
                                                         0.501100       0.358068
                                                         0.214447       0.064572
                                                         0.074663       0.004715
                          1       8    4dy2              3.103254      -0.666177
                                                         2.893835       0.808651
                                                         1.106151       0.592574
                                                         0.501100       0.206731
                                                         0.214447       0.037281
                                                         0.074663       0.002722
                          1       8    4dyz              3.103254      -1.153853
                                                         2.893835       1.400624
                                                         1.106151       1.026368
                                                         0.501100       0.358068
                                                         0.214447       0.064572
                                                         0.074663       0.004715
                          1       8    4dz2              3.103254      -0.666177
                                                         2.893835       0.808651
                                                         1.106151       0.592574
                                                         0.501100       0.206731
                                                         0.214447       0.037281
                                                         0.074663       0.002722

                          1       9    5dx2              3.103254      -0.501640
                                                         2.893835       0.331740
                                                         1.106151      -0.610405
                                                         0.501100      -0.248731
                                                         0.214447       0.071042
                                                         0.074663       0.009968
                          1       9    5dxy              3.103254      -0.868866
                                                         2.893835       0.574590
                                                         1.106151      -1.057253
                                                         0.501100      -0.430814
                                                         0.214447       0.123048
                                                         0.074663       0.017265
                          1       9    5dxz              3.103254      -0.868866
                                                         2.893835       0.574590
                                                         1.106151      -1.057253
                                                         0.501100      -0.430814
                                                         0.214447       0.123048
                                                         0.074663       0.017265
                          1       9    5dy2              3.103254      -0.501640
                                                         2.893835       0.331740
                                                         1.106151      -0.610405
                                                         0.501100      -0.248731
                                                         0.214447       0.071042
                                                         0.074663       0.009968
                          1       9    5dyz              3.103254      -0.868866
                                                         2.893835       0.574590
                                                         1.106151      -1.057253
                                                         0.501100      -0.430814
                                                         0.214447       0.123048
                                                         0.074663       0.017265
                          1       9    5dz2              3.103254      -0.501640
                                                         2.893835       0.331740
                                                         1.106151      -0.610405
                                                         0.501100      -0.248731
                                                         0.214447       0.071042
                                                         0.074663       0.009968

                          1      10    6dx2              3.103254       7.800782
                                                         2.893835      -7.616749
                                                         1.106151       0.397584
                                                         0.501100       0.114170
                                                         0.214447      -0.090180
                                                         0.074663       0.023135
                          1      10    6dxy              3.103254      13.511351
                                                         2.893835     -13.192597
                                                         1.106151       0.688635
                                                         0.501100       0.197748
                                                         0.214447      -0.156196
                                                         0.074663       0.040072
                          1      10    6dxz              3.103254      13.511351
                                                         2.893835     -13.192597
                                                         1.106151       0.688635
                                                         0.501100       0.197748
                                                         0.214447      -0.156196
                                                         0.074663       0.040072
                          1      10    6dy2              3.103254       7.800782
                                                         2.893835      -7.616749
                                                         1.106151       0.397584
                                                         0.501100       0.114170
                                                         0.214447      -0.090180
                                                         0.074663       0.023135
                          1      10    6dyz              3.103254      13.511351
                                                         2.893835     -13.192597
                                                         1.106151       0.688635
                                                         0.501100       0.197748
                                                         0.214447      -0.156196
                                                         0.074663       0.040072
                          1      10    6dz2              3.103254       7.800782
                                                         2.893835      -7.616749
                                                         1.106151       0.397584
                                                         0.501100       0.114170
                                                         0.214447      -0.090180
                                                         0.074663       0.023135

                          1      11    5fx3              3.103254      -1.761716
                                                         2.893835       1.954462
                                                         1.106151      -0.301026
                                                         0.501100      -0.156920
                                                         0.214447      -0.019380
                                                         0.074663      -0.000647
                          1      11    5fx2y             3.103254      -3.939317
                                                         2.893835       4.370309
                                                         1.106151      -0.673114
                                                         0.501100      -0.350883
                                                         0.214447      -0.043334
                                                         0.074663      -0.001448
                          1      11    5fx2z             3.103254      -3.939317
                                                         2.893835       4.370309
                                                         1.106151      -0.673114
                                                         0.501100      -0.350883
                                                         0.214447      -0.043334
                                                         0.074663      -0.001448
                          1      11    5fxy2             3.103254      -3.939317
                                                         2.893835       4.370309
                                                         1.106151      -0.673114
                                                         0.501100      -0.350883
                                                         0.214447      -0.043334
                                                         0.074663      -0.001448
                          1      11    5fxyz             3.103254      -6.823098
                                                         2.893835       7.569597
                                                         1.106151      -1.165867
                                                         0.501100      -0.607748
                                                         0.214447      -0.075057
                                                         0.074663      -0.002508
                          1      11    5fxz2             3.103254      -3.939317
                                                         2.893835       4.370309
                                                         1.106151      -0.673114
                                                         0.501100      -0.350883
                                                         0.214447      -0.043334
                                                         0.074663      -0.001448
                          1      11    5fy3              3.103254      -1.761716
                                                         2.893835       1.954462
                                                         1.106151      -0.301026
                                                         0.501100      -0.156920
                                                         0.214447      -0.019380
                                                         0.074663      -0.000647
                          1      11    5fy2z             3.103254      -3.939317
                                                         2.893835       4.370309
                                                         1.106151      -0.673114
                                                         0.501100      -0.350883
                                                         0.214447      -0.043334
                                                         0.074663      -0.001448
                          1      11    5fyz2             3.103254      -3.939317
                                                         2.893835       4.370309
                                                         1.106151      -0.673114
                                                         0.501100      -0.350883
                                                         0.214447      -0.043334
                                                         0.074663      -0.001448
                          1      11    5fz3              3.103254      -1.761716
                                                         2.893835       1.954462
                                                         1.106151      -0.301026
                                                         0.501100      -0.156920
                                                         0.214447      -0.019380
                                                         0.074663      -0.000647

                          1      12    6fx3              3.103254       3.523652
                                                         2.893835      -3.805052
                                                         1.106151       0.562959
                                                         0.501100       0.125270
                                                         0.214447      -0.021481
                                                         0.074663      -0.002929
                          1      12    6fx2y             3.103254       7.879126
                                                         2.893835      -8.508355
                                                         1.106151       1.258815
                                                         0.501100       0.280112
                                                         0.214447      -0.048033
                                                         0.074663      -0.006549
                          1      12    6fx2z             3.103254       7.879126
                                                         2.893835      -8.508355
                                                         1.106151       1.258815
                                                         0.501100       0.280112
                                                         0.214447      -0.048033
                                                         0.074663      -0.006549
                          1      12    6fxy2             3.103254       7.879126
                                                         2.893835      -8.508355
                                                         1.106151       1.258815
                                                         0.501100       0.280112
                                                         0.214447      -0.048033
                                                         0.074663      -0.006549
                          1      12    6fxyz             3.103254      13.647047
                                                         2.893835     -14.736904
                                                         1.106151       2.180331
                                                         0.501100       0.485168
                                                         0.214447      -0.083196
                                                         0.074663      -0.011342
                          1      12    6fxz2             3.103254       7.879126
                                                         2.893835      -8.508355
                                                         1.106151       1.258815
                                                         0.501100       0.280112
                                                         0.214447      -0.048033
                                                         0.074663      -0.006549
                          1      12    6fy3              3.103254       3.523652
                                                         2.893835      -3.805052
                                                         1.106151       0.562959
                                                         0.501100       0.125270
                                                         0.214447      -0.021481
                                                         0.074663      -0.002929
                          1      12    6fy2z             3.103254       7.879126
                                                         2.893835      -8.508355
                                                         1.106151       1.258815
                                                         0.501100       0.280112
                                                         0.214447      -0.048033
                                                         0.074663      -0.006549
                          1      12    6fyz2             3.103254       7.879126
                                                         2.893835      -8.508355
                                                         1.106151       1.258815
                                                         0.501100       0.280112
                                                         0.214447      -0.048033
                                                         0.074663      -0.006549
                          1      12    6fz3              3.103254       3.523652
                                                         2.893835      -3.805052
                                                         1.106151       0.562959
                                                         0.501100       0.125270
                                                         0.214447      -0.021481
                                                         0.074663      -0.002929

     RI Auxiliary Basis Set                                 def2-SVP-RIFIT-mod-2

       Number of orbital shell sets:                                          20
       Number of orbital shells:                                              20
       Number of primitive Cartesian functions:                               20
       Number of Cartesian basis functions:                                  108
       Number of spherical basis functions:                                   82
       Norm type:                                                              2

       Normalised Cartesian orbitals:

                        Set   Shell   Orbital            Exponent    Coefficient

                          1       1    1s                0.208675       0.220046

                          2       1    1fx3              0.253216       0.066959
                          2       1    1fx2y             0.253216       0.149725
                          2       1    1fx2z             0.253216       0.149725
                          2       1    1fxy2             0.253216       0.149725
                          2       1    1fxyz             0.253216       0.259331
                          2       1    1fxz2             0.253216       0.149725
                          2       1    1fy3              0.253216       0.066959
                          2       1    1fy2z             0.253216       0.149725
                          2       1    1fyz2             0.253216       0.149725
                          2       1    1fz3              0.253216       0.066959

                          3       1    1gx4              0.265033       0.028874
                          3       1    1gx3y             0.265033       0.076394
                          3       1    1gx3z             0.265033       0.076394
                          3       1    1gx2y2            0.265033       0.098624
                          3       1    1gx2yz            0.265033       0.170822
                          3       1    1gx2z2            0.265033       0.098624
                          3       1    1gxy3             0.265033       0.076394
                          3       1    1gxy2z            0.265033       0.170822
                          3       1    1gxyz2            0.265033       0.170822
                          3       1    1gxz3             0.265033       0.076394
                          3       1    1gy4              0.265033       0.028874
                          3       1    1gy3z             0.265033       0.076394
                          3       1    1gy2z2            0.265033       0.098624
                          3       1    1gyz3             0.265033       0.076394
                          3       1    1gz4              0.265033       0.028874

                          4       1    1px               0.269126       0.276302
                          4       1    1py               0.269126       0.276302
                          4       1    1pz               0.269126       0.276302

                          5       1    1dx2              0.304026       0.204882
                          5       1    1dxy              0.304026       0.354866
                          5       1    1dxz              0.304026       0.354866
                          5       1    1dy2              0.304026       0.204882
                          5       1    1dyz              0.304026       0.354866
                          5       1    1dz2              0.304026       0.204882

                          6       1    1s                0.364638       0.334431

                          7       1    1fx3              0.470422       0.269806
                          7       1    1fx2y             0.470422       0.603305
                          7       1    1fx2z             0.470422       0.603305
                          7       1    1fxy2             0.470422       0.603305
                          7       1    1fxyz             0.470422       1.044954
                          7       1    1fxz2             0.470422       0.603305
                          7       1    1fy3              0.470422       0.269806
                          7       1    1fy2z             0.470422       0.603305
                          7       1    1fyz2             0.470422       0.603305
                          7       1    1fz3              0.470422       0.269806

                          8       1    1s                0.648984       0.515330

                          9       1    1dx2              0.719090       0.924230
                          9       1    1dxy              0.719090       1.600814
                          9       1    1dxz              0.719090       1.600814
                          9       1    1dy2              0.719090       0.924230
                          9       1    1dyz              0.719090       1.600814
                          9       1    1dz2              0.719090       0.924230

                         10       1    1gx4              0.914481       0.870294
                         10       1    1gx3y             0.914481       2.302581
                         10       1    1gx3z             0.914481       2.302581
                         10       1    1gx2y2            0.914481       2.972619
                         10       1    1gx2yz            0.914481       5.148727
                         10       1    1gx2z2            0.914481       2.972619
                         10       1    1gxy3             0.914481       2.302581
                         10       1    1gxy2z            0.914481       5.148727
                         10       1    1gxyz2            0.914481       5.148727
                         10       1    1gxz3             0.914481       2.302581
                         10       1    1gy4              0.914481       0.870294
                         10       1    1gy3z             0.914481       2.302581
                         10       1    1gy2z2            0.914481       2.972619
                         10       1    1gyz3             0.914481       2.302581
                         10       1    1gz4              0.914481       0.870294

                         11       1    1px               0.967490       1.367723
                         11       1    1py               0.967490       1.367723
                         11       1    1pz               0.967490       1.367723

                         12       1    1dx2              1.179750       2.198072
                         12       1    1dxy              1.179750       3.807173
                         12       1    1dxz              1.179750       3.807173
                         12       1    1dy2              1.179750       2.198072
                         12       1    1dyz              1.179750       3.807173
                         12       1    1dz2              1.179750       2.198072

                         13       1    1fx3              1.281070       2.570357
                         13       1    1fx2y             1.281070       5.747492
                         13       1    1fx2z             1.281070       5.747492
                         13       1    1fxy2             1.281070       5.747492
                         13       1    1fxyz             1.281070       9.954948
                         13       1    1fxz2             1.281070       5.747492
                         13       1    1fy3              1.281070       2.570357
                         13       1    1fy2z             1.281070       5.747492
                         13       1    1fyz2             1.281070       5.747492
                         13       1    1fz3              1.281070       2.570357

                         14       1    1s                1.466370       0.949714

                         15       1    1px               1.939290       3.262072
                         15       1    1py               1.939290       3.262072
                         15       1    1pz               1.939290       3.262072

                         16       1    1s                2.101910       1.244144

                         17       1    1dx2              2.484170       8.090526
                         17       1    1dxy              2.484170      14.013202
                         17       1    1dxz              2.484170      14.013202
                         17       1    1dy2              2.484170       8.090526
                         17       1    1dyz              2.484170      14.013202
                         17       1    1dz2              2.484170       8.090526

                         18       1    1px               2.934310       5.474224
                         18       1    1py               2.934310       5.474224
                         18       1    1pz               2.934310       5.474224

                         19       1    1s                3.287500       1.740041

                         20       1    1dx2              4.561580      23.434799
                         20       1    1dxy              4.561580      40.590262
                         20       1    1dxz              4.561580      40.590262
                         20       1    1dy2              4.561580      23.434799
                         20       1    1dyz              4.561580      40.590262
                         20       1    1dz2              4.561580      23.434799

       Atomic covalent radius [Angstrom]:                                  1.300

       Atomic van der Waals radius [Angstrom]:                             1.670

     GTH Potential information for                                  GTH-PADE-q14

       Description:                       Goedecker-Teter-Hutter pseudopotential
                                           Goedecker et al., PRB 54, 1703 (1996)
                                          Hartwigsen et al., PRB 58, 3641 (1998)
                                                      Krack, TCA 114, 145 (2005)

       Gaussian exponent of the core charge distribution:               1.714678
       Electronic configuration (s p d ...):                           4   6   4

       Parameters of the local part of the GTH pseudopotential:

                          rloc        C1          C2          C3          C4
                        0.540000    4.800251    0.901544

       Parameters of the non-local part of the GTH pseudopotential:

                   l      r(l)      h(i,j,l)

                   0    0.418570    2.692204    2.332557    0.297239
                                    2.332557   -6.022638   -0.767467
                                    0.297239   -0.767467    1.218316
                   1    0.449555   -0.702084    1.036024
                                    1.036024   -2.451680
                   2    0.399602    1.177436    2.448917
                                    2.448917   -5.553621

  2. Atomic kind: S                                     Number of atoms:     200

     Orbital Basis Set                                          TZV2P-MOLOPT-GTH

       Number of orbital shell sets:                                           1
       Number of orbital shells:                                               8
       Number of primitive Cartesian functions:                                6
       Number of Cartesian basis functions:                                   24
       Number of spherical basis functions:                                   22
       Norm type:                                                              2

       Normalised Cartesian orbitals:

                        Set   Shell   Orbital            Exponent    Coefficient

                          1       1    2s                3.817591       0.157264
                                                         2.362752      -0.510082
                                                         0.861004      -0.067545
                                                         0.417525       0.341507
                                                         0.181514       0.065073
                                                         0.070571       0.000166

                          1       2    3s                3.817591      -0.204385
                                                         2.362752       0.558740
                                                         0.861004       0.301625
                                                         0.417525      -0.627222
                                                         0.181514       0.190853
                                                         0.070571       0.080605

                          1       3    4s                3.817591      -1.028748
                                                         2.362752       1.936036
                                                         0.861004       0.140522
                                                         0.417525      -0.138514
                                                         0.181514       0.081374
                                                         0.070571      -0.058475

                          1       4    3px               3.817591      -0.172386
                                                         2.362752      -0.175607
                                                         0.861004       0.224215
                                                         0.417525       0.286358
                                                         0.181514       0.049699
                                                         0.070571       0.001588
                          1       4    3py               3.817591      -0.172386
                                                         2.362752      -0.175607
                                                         0.861004       0.224215
                                                         0.417525       0.286358
                                                         0.181514       0.049699
                                                         0.070571       0.001588
                          1       4    3pz               3.817591      -0.172386
                                                         2.362752      -0.175607
                                                         0.861004       0.224215
                                                         0.417525       0.286358
                                                         0.181514       0.049699
                                                         0.070571       0.001588

                          1       5    4px               3.817591       0.011373
                                                         2.362752       0.235342
                                                         0.861004      -0.175793
                                                         0.417525      -0.223923
                                                         0.181514       0.115877
                                                         0.070571       0.033489
                          1       5    4py               3.817591       0.011373
                                                         2.362752       0.235342
                                                         0.861004      -0.175793
                                                         0.417525      -0.223923
                                                         0.181514       0.115877
                                                         0.070571       0.033489
                          1       5    4pz               3.817591       0.011373
                                                         2.362752       0.235342
                                                         0.861004      -0.175793
                                                         0.417525      -0.223923
                                                         0.181514       0.115877
                                                         0.070571       0.033489

                          1       6    5px               3.817591      -0.999910
                                                         2.362752       1.827963
                                                         0.861004      -1.566915
                                                         0.417525       0.819066
                                                         0.181514       0.069667
                                                         0.070571      -0.035715
                          1       6    5py               3.817591      -0.999910
                                                         2.362752       1.827963
                                                         0.861004      -1.566915
                                                         0.417525       0.819066
                                                         0.181514       0.069667
                                                         0.070571      -0.035715
                          1       6    5pz               3.817591      -0.999910
                                                         2.362752       1.827963
                                                         0.861004      -1.566915
                                                         0.417525       0.819066
                                                         0.181514       0.069667
                                                         0.070571      -0.035715

                          1       7    4dx2              3.817591       0.133631
                                                         2.362752       0.806297
                                                         0.861004       0.453606
                                                         0.417525       0.175089
                                                         0.181514       0.017666
                                                         0.070571      -0.000330
                          1       7    4dxy              3.817591       0.231456
                                                         2.362752       1.396548
                                                         0.861004       0.785669
                                                         0.417525       0.303263
                                                         0.181514       0.030598
                                                         0.070571      -0.000571
                          1       7    4dxz              3.817591       0.231456
                                                         2.362752       1.396548
                                                         0.861004       0.785669
                                                         0.417525       0.303263
                                                         0.181514       0.030598
                                                         0.070571      -0.000571
                          1       7    4dy2              3.817591       0.133631
                                                         2.362752       0.806297
                                                         0.861004       0.453606
                                                         0.417525       0.175089
                                                         0.181514       0.017666
                                                         0.070571      -0.000330
                          1       7    4dyz              3.817591       0.231456
                                                         2.362752       1.396548
                                                         0.861004       0.785669
                                                         0.417525       0.303263
                                                         0.181514       0.030598
                                                         0.070571      -0.000571
                          1       7    4dz2              3.817591       0.133631
                                                         2.362752       0.806297
                                                         0.861004       0.453606
                                                         0.417525       0.175089
                                                         0.181514       0.017666
                                                         0.070571      -0.000330

                          1       8    5dx2              3.817591      -0.996276
                                                         2.362752       0.744777
                                                         0.861004      -0.970401
                                                         0.417525       0.627373
                                                         0.181514      -0.023567
                                                         0.070571      -0.005923
                          1       8    5dxy              3.817591      -1.725601
                                                         2.362752       1.289991
                                                         0.861004      -1.680783
                                                         0.417525       1.086642
                                                         0.181514      -0.040820
                                                         0.070571      -0.010260
                          1       8    5dxz              3.817591      -1.725601
                                                         2.362752       1.289991
                                                         0.861004      -1.680783
                                                         0.417525       1.086642
                                                         0.181514      -0.040820
                                                         0.070571      -0.010260
                          1       8    5dy2              3.817591      -0.996276
                                                         2.362752       0.744777
                                                         0.861004      -0.970401
                                                         0.417525       0.627373
                                                         0.181514      -0.023567
                                                         0.070571      -0.005923
                          1       8    5dyz              3.817591      -1.725601
                                                         2.362752       1.289991
                                                         0.861004      -1.680783
                                                         0.417525       1.086642
                                                         0.181514      -0.040820
                                                         0.070571      -0.010260
                          1       8    5dz2              3.817591      -0.996276
                                                         2.362752       0.744777
                                                         0.861004      -0.970401
                                                         0.417525       0.627373
                                                         0.181514      -0.023567
                                                         0.070571      -0.005923

     RI Auxiliary Basis Set                                 def2-SVP-RIFIT-mod-1

       Number of orbital shell sets:                                          13
       Number of orbital shells:                                              13
       Number of primitive Cartesian functions:                               13
       Number of Cartesian basis functions:                                   54
       Number of spherical basis functions:                                   45
       Norm type:                                                              2

       Normalised Cartesian orbitals:

                        Set   Shell   Orbital            Exponent    Coefficient

                          1       1    1s                0.197811       0.211396

                          2       1    1dx2              0.242242       0.137672
                          2       1    1dxy              0.242242       0.238455
                          2       1    1dxz              0.242242       0.238455
                          2       1    1dy2              0.242242       0.137672
                          2       1    1dyz              0.242242       0.238455
                          2       1    1dz2              0.242242       0.137672

                          3       1    1px               0.324549       0.349172
                          3       1    1py               0.324549       0.349172
                          3       1    1pz               0.324549       0.349172

                          4       1    1s                0.389135       0.351144

                          5       1    1fx3              0.529340       0.351850
                          5       1    1fx2y             0.529340       0.786760
                          5       1    1fx2z             0.529340       0.786760
                          5       1    1fxy2             0.529340       0.786760
                          5       1    1fxyz             0.529340       1.362708
                          5       1    1fxz2             0.529340       0.786760
                          5       1    1fy3              0.529340       0.351850
                          5       1    1fy2z             0.529340       0.786760
                          5       1    1fyz2             0.529340       0.786760
                          5       1    1fz3              0.529340       0.351850

                          6       1    1dx2              0.603367       0.679871
                          6       1    1dxy              0.603367       1.177572
                          6       1    1dxz              0.603367       1.177572
                          6       1    1dy2              0.603367       0.679871
                          6       1    1dyz              0.603367       1.177572
                          6       1    1dz2              0.603367       0.679871

                          7       1    1px               0.631252       0.802035
                          7       1    1py               0.631252       0.802035
                          7       1    1pz               0.631252       0.802035

                          8       1    1s                0.936032       0.678232

                          9       1    1dx2              1.115385       1.992520
                          9       1    1dxy              1.115385       3.451146
                          9       1    1dxz              1.115385       3.451146
                          9       1    1dy2              1.115385       1.992520
                          9       1    1dyz              1.115385       3.451146
                          9       1    1dz2              1.115385       1.992520

                         10       1    1fx3              1.132321       1.947088
                         10       1    1fx2y             1.132321       4.353822
                         10       1    1fx2z             1.132321       4.353822
                         10       1    1fxy2             1.132321       4.353822
                         10       1    1fxyz             1.132321       7.541040
                         10       1    1fxz2             1.132321       4.353822
                         10       1    1fy3              1.132321       1.947088
                         10       1    1fy2z             1.132321       4.353822
                         10       1    1fyz2             1.132321       4.353822
                         10       1    1fz3              1.132321       1.947088

                         11       1    1px               1.173306       1.740620
                         11       1    1py               1.173306       1.740620
                         11       1    1pz               1.173306       1.740620

                         12       1    1s                2.064006       1.227279

                         13       1    1px               2.625789       4.764474
                         13       1    1py               2.625789       4.764474
                         13       1    1pz               2.625789       4.764474

       Atomic covalent radius [Angstrom]:                                  1.020

       Atomic van der Waals radius [Angstrom]:                             1.800

     GTH Potential information for                                   GTH-PADE-q6

       Description:                       Goedecker-Teter-Hutter pseudopotential
                                           Goedecker et al., PRB 54, 1703 (1996)
                                          Hartwigsen et al., PRB 58, 3641 (1998)
                                                      Krack, TCA 114, 145 (2005)

       Gaussian exponent of the core charge distribution:               2.834467
       Electronic configuration (s p d ...):                               2   4

       Parameters of the local part of the GTH pseudopotential:

                          rloc        C1          C2          C3          C4
                        0.420000   -6.554492

       Parameters of the non-local part of the GTH pseudopotential:

                   l      r(l)      h(i,j,l)

                   0    0.361757    7.905303   -1.731881
                                   -1.731881    4.471698
                   1    0.405285    3.866579


 MOLECULE KIND INFORMATION


 All atoms are their own molecule, skipping detailed information


 TOTAL NUMBERS AND MAXIMUM NUMBERS

  Total number of            - Atomic kinds:                                   2
                             - Atoms:                                        300
                             - Shell sets:                                   300
                             - Shells:                                      2800
                             - Primitive Cartesian functions:               1800
                             - Cartesian basis functions:                   9900
                             - Spherical basis functions:                   8600

  Maximum angular momentum of- Orbital basis functions:                        3
                             - Local part of the GTH pseudopotential:          2
                             - Non-local part of the GTH pseudopotential:      4


 MODULE QUICKSTEP: ATOMIC COORDINATES IN ANGSTROM

   Atom Kind Element         X             Y             Z       Z(eff)     Mass
      1    1 W    74      0.000000      0.000000      7.072797  14.0000 183.8400
      2    2 S    16      1.592973      0.919703      8.645595   6.0000  32.0650
      3    2 S    16      1.592973      0.919703      5.500000   6.0000  32.0650
      4    1 W    74      3.186000      0.000000      7.072797  14.0000 183.8400
      5    2 S    16      4.778973      0.919703      8.645595   6.0000  32.0650
      6    2 S    16      4.778973      0.919703      5.500000   6.0000  32.0650
      7    1 W    74      6.372000      0.000000      7.072797  14.0000 183.8400
      8    2 S    16      7.964973      0.919703      8.645595   6.0000  32.0650
      9    2 S    16      7.964973      0.919703      5.500000   6.0000  32.0650
     10    1 W    74      9.558000      0.000000      7.072797  14.0000 183.8400
     11    2 S    16     11.150973      0.919703      8.645595   6.0000  32.0650
     12    2 S    16     11.150973      0.919703      5.500000   6.0000  32.0650
     13    1 W    74     12.744000      0.000000      7.072797  14.0000 183.8400
     14    2 S    16     14.336973      0.919703      8.645595   6.0000  32.0650
     15    2 S    16     14.336973      0.919703      5.500000   6.0000  32.0650
     16    1 W    74     15.930000      0.000000      7.072797  14.0000 183.8400
     17    2 S    16     17.522973      0.919703      8.645595   6.0000  32.0650
     18    2 S    16     17.522973      0.919703      5.500000   6.0000  32.0650
     19    1 W    74     19.116000      0.000000      7.072797  14.0000 183.8400
     20    2 S    16     20.708973      0.919703      8.645595   6.0000  32.0650
     21    2 S    16     20.708973      0.919703      5.500000   6.0000  32.0650
     22    1 W    74     22.302000      0.000000      7.072797  14.0000 183.8400
     23    2 S    16     23.894973      0.919703      8.645595   6.0000  32.0650
     24    2 S    16     23.894973      0.919703      5.500000   6.0000  32.0650
     25    1 W    74     25.488000      0.000000      7.072797  14.0000 183.8400
     26    2 S    16     27.080973      0.919703      8.645595   6.0000  32.0650
     27    2 S    16     27.080973      0.919703      5.500000   6.0000  32.0650
     28    1 W    74     28.674000      0.000000      7.072797  14.0000 183.8400
     29    2 S    16     30.266973      0.919703      8.645595   6.0000  32.0650
     30    2 S    16     30.266973      0.919703      5.500000   6.0000  32.0650
     31    1 W    74     -1.593000      2.759000      7.072797  14.0000 183.8400
     32    2 S    16     -0.000027      3.678703      8.645595   6.0000  32.0650
     33    2 S    16     -0.000027      3.678703      5.500000   6.0000  32.0650
     34    1 W    74      1.593000      2.759000      7.072797  14.0000 183.8400
     35    2 S    16      3.185973      3.678703      8.645595   6.0000  32.0650
     36    2 S    16      3.185973      3.678703      5.500000   6.0000  32.0650
     37    1 W    74      4.779000      2.759000      7.072797  14.0000 183.8400
     38    2 S    16      6.371973      3.678703      8.645595   6.0000  32.0650
     39    2 S    16      6.371973      3.678703      5.500000   6.0000  32.0650
     40    1 W    74      7.965000      2.759000      7.072797  14.0000 183.8400
     41    2 S    16      9.557973      3.678703      8.645595   6.0000  32.0650
     42    2 S    16      9.557973      3.678703      5.500000   6.0000  32.0650
     43    1 W    74     11.151000      2.759000      7.072797  14.0000 183.8400
     44    2 S    16     12.743973      3.678703      8.645595   6.0000  32.0650
     45    2 S    16     12.743973      3.678703      5.500000   6.0000  32.0650
     46    1 W    74     14.337000      2.759000      7.072797  14.0000 183.8400
     47    2 S    16     15.929973      3.678703      8.645595   6.0000  32.0650
     48    2 S    16     15.929973      3.678703      5.500000   6.0000  32.0650
     49    1 W    74     17.523000      2.759000      7.072797  14.0000 183.8400
     50    2 S    16     19.115973      3.678703      8.645595   6.0000  32.0650
     51    2 S    16     19.115973      3.678703      5.500000   6.0000  32.0650
     52    1 W    74     20.709000      2.759000      7.072797  14.0000 183.8400
     53    2 S    16     22.301973      3.678703      8.645595   6.0000  32.0650
     54    2 S    16     22.301973      3.678703      5.500000   6.0000  32.0650
     55    1 W    74     23.895000      2.759000      7.072797  14.0000 183.8400
     56    2 S    16     25.487973      3.678703      8.645595   6.0000  32.0650
     57    2 S    16     25.487973      3.678703      5.500000   6.0000  32.0650
     58    1 W    74     27.081000      2.759000      7.072797  14.0000 183.8400
     59    2 S    16     28.673973      3.678703      8.645595   6.0000  32.0650
     60    2 S    16     28.673973      3.678703      5.500000   6.0000  32.0650
     61    1 W    74     -3.186000      5.518000      7.072797  14.0000 183.8400
     62    2 S    16     -1.593027      6.437703      8.645595   6.0000  32.0650
     63    2 S    16     -1.593027      6.437703      5.500000   6.0000  32.0650
     64    1 W    74      0.000000      5.518000      7.072797  14.0000 183.8400
     65    2 S    16      1.592973      6.437703      8.645595   6.0000  32.0650
     66    2 S    16      1.592973      6.437703      5.500000   6.0000  32.0650
     67    1 W    74      3.186000      5.518000      7.072797  14.0000 183.8400
     68    2 S    16      4.778973      6.437703      8.645595   6.0000  32.0650
     69    2 S    16      4.778973      6.437703      5.500000   6.0000  32.0650
     70    1 W    74      6.372000      5.518000      7.072797  14.0000 183.8400
     71    2 S    16      7.964973      6.437703      8.645595   6.0000  32.0650
     72    2 S    16      7.964973      6.437703      5.500000   6.0000  32.0650
     73    1 W    74      9.558000      5.518000      7.072797  14.0000 183.8400
     74    2 S    16     11.150973      6.437703      8.645595   6.0000  32.0650
     75    2 S    16     11.150973      6.437703      5.500000   6.0000  32.0650
     76    1 W    74     12.744000      5.518000      7.072797  14.0000 183.8400
     77    2 S    16     14.336973      6.437703      8.645595   6.0000  32.0650
     78    2 S    16     14.336973      6.437703      5.500000   6.0000  32.0650
     79    1 W    74     15.930000      5.518000      7.072797  14.0000 183.8400
     80    2 S    16     17.522973      6.437703      8.645595   6.0000  32.0650
     81    2 S    16     17.522973      6.437703      5.500000   6.0000  32.0650
     82    1 W    74     19.116000      5.518000      7.072797  14.0000 183.8400
     83    2 S    16     20.708973      6.437703      8.645595   6.0000  32.0650
     84    2 S    16     20.708973      6.437703      5.500000   6.0000  32.0650
     85    1 W    74     22.302000      5.518000      7.072797  14.0000 183.8400
     86    2 S    16     23.894973      6.437703      8.645595   6.0000  32.0650
     87    2 S    16     23.894973      6.437703      5.500000   6.0000  32.0650
     88    1 W    74     25.488000      5.518000      7.072797  14.0000 183.8400
     89    2 S    16     27.080973      6.437703      8.645595   6.0000  32.0650
     90    2 S    16     27.080973      6.437703      5.500000   6.0000  32.0650
     91    1 W    74     -4.779000      8.277000      7.072797  14.0000 183.8400
     92    2 S    16     -3.186027      9.196703      8.645595   6.0000  32.0650
     93    2 S    16     -3.186027      9.196703      5.500000   6.0000  32.0650
     94    1 W    74     -1.593000      8.277000      7.072797  14.0000 183.8400
[...]
 number of processed stacks               6215467       2.9%     97.1%      0.0%
 average stack size                                     1.0       6.3       0.0
 marketing flops                   887.519969E+09
 -------------------------------------------------------------------------------
 # multiplications                              6
 max memory usage/rank             842.522624E+06
 # max total images/rank                        6
 # max 3D layers                                1
 # MPI messages exchanged                 5402880
 MPI messages size (bytes):
  total size                       263.770964E+09
  min size                           0.000000E+00
  max size                         177.408000E+03
  average size                      48.820438E+03
 MPI breakdown and total messages size (bytes):
             size <=      128              402480                        0
       128 < size <=     8192              222378               1305285696
      8192 < size <=    32768              785613              16724775872
     32768 < size <=   131072             3945594             239354142016
    131072 < size <=  4194304               46815               6386740416
   4194304 < size <= 16777216                   0                        0
  16777216 < size                               0                        0
 -------------------------------------------------------------------------------

 *** WARNING in dbcsr_mm.F:290 :: Using a non-square number of MPI ranks   ***
 *** might lead to poor performance. Used ranks: 1920 Suggested: 1936 3844 ***

 -------------------------------------------------------------------------------
 -                                                                             -
 -                      DBCSR MESSAGE PASSING PERFORMANCE                      -
 -                                                                             -
 -------------------------------------------------------------------------------
 ROUTINE             CALLS      AVE VOLUME [Bytes]
 MP_Bcast              532                     12.
 MP_Allreduce         1111                     25.
 MP_Alltoall         99103                9343771.
 MP_ISend             5676                  28987.
 MP_IRecv             5672                  28788.
 -------------------------------------------------------------------------------

 -------------------------------------------------------------------------------
 -                                                                             -
 -                                DBM STATISTICS                               -
 -                                                                             -
 -------------------------------------------------------------------------------
    M  x    N  x    K                                          COUNT     PERCENT
   ??  x   ??  x  ???                                   195096997656      10.98%
    ?  x    ?  x    ?                                   573047566913      32.24%
    ?  x >999  x   ??                                     5516206234       0.31%
    ?  x    ?  x >999                                    44168756233       2.49%
   ??  x  ???  x    ?                                    31165319082       1.75%
    ?  x  ???  x   ??                                    35388340270       1.99%
   ??  x >999  x    ?                                     4923161693       0.28%
   ??  x >999  x   ??                                      525360000       0.03%
   ??  x   ??  x >999                                      462747350       0.03%
    ?  x  ???  x    ?                                   326850652888      18.39%
   ??  x    ?  x >999                                     4545138627       0.26%
    ?  x   ??  x >999                                     4514019973       0.25%
    ?  x >999  x    ?                                    51643420145       2.91%
   ??  x    ?  x  ???                                    25872045921       1.46%
    ?  x   ??  x  ???                                    25643592463       1.44%
    ?  x    ?  x  ???                                   240390783141      13.53%
   ??  x  ???  x   ??                                     3370400000       0.19%
  ???  x   ??  x   ??                                   204097626180      11.48%
 -------------------------------------------------------------------------------

 -------------------------------------------------------------------------------
 -                                                                             -
 -                                GRID STATISTICS                              -
 -                                                                             -
 -------------------------------------------------------------------------------
 LP    KERNEL             BACKEND                              COUNT     PERCENT
 4     collocate general  REF                                1726200      18.45%
 4     integrate general  REF                                1726200      18.45%
 5     collocate general  REF                                1668600      17.83%
 5     integrate general  REF                                1668600      17.83%
 0     collocate general  REF                                1152000      12.31%
 0     integrate general  REF                                 576000       6.16%
 6     collocate general  REF                                 419100       4.48%
 6     integrate general  REF                                 419100       4.48%
 -------------------------------------------------------------------------------

 MEMORY| Estimated peak process memory [MiB]                                5816

 -------------------------------------------------------------------------------
 ----                             MULTIGRID INFO                            ----
 -------------------------------------------------------------------------------
 count for grid        1:       65492640          cutoff [a.u.]          250.00
 count for grid        2:       32176640          cutoff [a.u.]           83.33
 count for grid        3:       12571020          cutoff [a.u.]           27.78
 count for grid        4:        3524140          cutoff [a.u.]            9.26
 total gridlevel count  :      113764440

 -------------------------------------------------------------------------------
 -                                                                             -
 -                         MESSAGE PASSING PERFORMANCE                         -
 -                                                                             -
 -------------------------------------------------------------------------------

 ROUTINE             CALLS      AVE VOLUME [Bytes]
 MP_Group             5945
 MP_Bcast            16524                 389228.
 MP_Allreduce        11604                  18617.
 MP_Sync              8701
 MP_Alltoall          3881                8881351.
 MP_SendRecv         17271                  16384.
 MP_ISendRecv        17271                  16384.
 MP_Wait             26169
 MP_comm_split        3471
 MP_ISend           710174                 254580.
 MP_IRecv           777748                 254641.
 -------------------------------------------------------------------------------


 -------------------------------------------------------------------------------
 -                                                                             -
 -                           R E F E R E N C E S                               -
 -                                                                             -
 -------------------------------------------------------------------------------
 
 CP2K version 2023.1 (Development Version), the CP2K developers group (2023).
 CP2K is freely available from https://www.cp2k.org/ .

 Kuehne,Thomas D.; Iannuzzi,Marcella; Del Ben,Mauro;
 Rybkin,Vladimir V.; Seewald,Patrick; Stein,Frederick; Laino,Teodoro;
 Khaliullin,Rustam Z.; Schuett,Ole; Schiffmann,Florian; Golze,Dorothea;
 Wilhelm,Jan; Chulkov,Sergey; Bani-Hashemian,Mohammad Hossein;
 Weber,Valery; Borstnik,Urban; Taillefumier,Mathieu;
 Jakobovits,Alice Shoshana; Lazzaro,Alfio; Pabst,Hans; Mueller,Tiziano;
 Schade,Robert; Guidon,Manuel; Andermatt,Samuel; Holmberg,Nico;
 Schenter,Gregory K.; Hehn,Anna; Bussy,Augustin; Belleflamme,Fabian;
 Tabacchi,Gloria; Gloess,Andreas; Lass,Michael; Bethune,Iain;
 Mundy,Christopher J.; Plessl,Christian; Watkins,Matt;
 VandeVondele,Joost; Krack,Matthias; Hutter,Juerg. 
 The Journal of Chemical Physics, 152 (19), (2020). 
 CP2K: An electronic structure and molecular dynamics software package -
 Quickstep: Efficient and accurate electronic structure calculations.
 https://doi.org/10.1063/5.0007045

 Wilhelm, J; Golze, D; Talirz, L; Hutter, J; Pignedoli, CA. 
 JOURNAL OF PHYSICAL CHEMISTRY LETTERS, 9, 306-312 (2018). 
 Toward GW calculations on thousands of atoms.
 https://doi.org/10.1021/acs.jpclett.7b02740

 Wilhelm, J; Hutter, J. PHYSICAL REVIEW B, 95, 235123 (2017). 
 Periodic GW calculations in the Gaussian and plane-waves scheme.
 https://doi.org/10.1103/PhysRevB.95.235123

 Wilhelm, J; Del Ben, M; Hutter, J. 
 JOURNAL OF CHEMICAL THEORY AND COMPUTATION, 12, 3623-3635 (2016). 
 GW in the Gaussian and plane waves scheme with application to linear acenes.
 https://doi.org/10.1021/acs.jctc.6b00380

 Wilhelm, J; Seewald, P; Del Ben, M; Hutter, J. 
 JOURNAL OF CHEMICAL THEORY AND COMPUTATION, 12, 5851-5859 (2016). 
 Large-Scale Cubic-Scaling Random Phase Approximation Correlation.
 https://doi.org/10.1021/acs.jctc.6b00840

 Schuett, Ole; Messmer, Peter; Hutter, Juerg; VandeVondele, Joost. 
 Electronic Structure Calculations on Graphics Processing Units, John
 Wiley & Sons, Ltd, 173-190 (2016). 
 GPU-Accelerated Sparse Matrix-Matrix Multiplication for
 Linear Scaling Density Functional Theory.
 https://doi.org/10.1002/9781118670712.ch8

 Heinecke, A; Henry, G; Hutchinson, M; Pabst, H. 
 Proceedings of Intl. Supercomputing Conference, 981-991 (2016). 
 LIBXSMM: Accelerating Small Matrix Multiplications
 by Runtime Code Generation.
 https://doi.org/10.1109/SC.2016.83

 Del Ben, M; Schuett, O; Wentz, T; Messmer, P; Hutter, J;
 VandeVondele, J. 
 COMPUTER PHYSICS COMMUNICATIONS, 187, 120-129 (2015). 
 Enabling simulation at the fifth rung of DFT: Large scale RPA
 calculations with excellent time to solution.
 https://doi.org/10.1016/j.cpc.2014.10.021

 Borstnik, U; VandeVondele, J; Weber, V; Hutter, J. 
 PARALLEL COMPUTING, 40 (5-6), 47-58 (2014). 
 Sparse matrix multiplication: The distributed block-compressed sparse
 row library.
 https://doi.org/10.1016/j.parco.2014.03.012

 Hutter, J; Iannuzzi, M; Schiffmann, F; VandeVondele, J. 
 WIREs Comput Mol Sci., 4 (1), 15-25 (2014). 
 CP2K: atomistic simulations of condensed matter systems.
 https://doi.org/10.1002/wcms.1159

 Marek, A; Blum, V; Johanni, R; Havu, V; Lang, B; Auckenthaler, T;
 Heinecke, A; Bungartz, H; Lederer, H. 
 Journal of Physics: Condensed Matter, 26 (21), (2014). 
 The ELPA library: scalable parallel eigenvalue solutions for
 electronic structure
 theory and computational science.
 https://doi.org/10.1088/0953-8984/26/21/213201

 Del Ben, M; Hutter, J; VandeVondele, J. 
 JOURNAL OF CHEMICAL THEORY AND COMPUTATION, 9 (6), 2654-2671 (2013). 
 Electron Correlation in the Condensed Phase from a Resolution of
 Identity Approach Based on the Gaussian and Plane Waves Scheme.
 https://doi.org/10.1021/ct4002202

 Del Ben, M; Hutter, J; VandeVondele, J. 
 JOURNAL OF CHEMICAL THEORY AND COMPUTATION, 8 (11), 4177-4188 (2012). 
 Second-Order Moller-Plesset Perturbation Theory in the Condensed Phase:
 An Efficient and Massively Parallel Gaussian and Plane Waves Approach.
 https://doi.org/10.1021/ct300531w

 VandeVondele, J; Hutter, J. 
 JOURNAL OF CHEMICAL PHYSICS, 127 (11), 114105 (2007). 
 Gaussian basis sets for accurate calculations on molecular systems in
 gas and condensed phases.
 https://doi.org/10.1063/1.2770708

 Krack, M. 
 THEORETICAL CHEMISTRY ACCOUNTS, 114 (1-3), 145-152 (2005). 
 Pseudopotentials for H to Kr optimized for gradient-corrected
 exchange-correlation functionals.
 https://doi.org/10.1007/s00214-005-0655-y

 VandeVondele, J; Krack, M; Mohamed, F; Parrinello, M; Chassaing, T;
 Hutter, J. COMPUTER PHYSICS COMMUNICATIONS, 167 (2), 103-128 (2005). 
 QUICKSTEP: Fast and accurate density functional calculations using a
 mixed Gaussian and plane waves approach.
 https://doi.org/10.1016/j.cpc.2004.12.014

 Frigo, M; Johnson, SG. 
 PROCEEDINGS OF THE IEEE, 93 (2), 216-231 (2005). 
 The design and implementation of FFTW3.
 https://doi.org/10.1109/JPROC.2004.840301

 Hartwigsen, C; Goedecker, S; Hutter, J. 
 PHYSICAL REVIEW B, 58 (7), 3641-3662 (1998). 
 Relativistic separable dual-space Gaussian pseudopotentials from H to Rn.
 https://doi.org/10.1103/PhysRevB.58.3641

 Lippert, G; Hutter, J; Parrinello, M. 
 MOLECULAR PHYSICS, 92 (3), 477-487 (1997). 
 A hybrid Gaussian and plane wave density functional scheme.
 https://doi.org/10.1080/002689797170220

 Goedecker, S; Teter, M; Hutter, J. 
 PHYSICAL REVIEW B, 54 (3), 1703-1710 (1996). 
 Separable dual-space Gaussian pseudopotentials.
 https://doi.org/10.1103/PhysRevB.54.1703


 -------------------------------------------------------------------------------
 -                                                                             -
 -                                T I M I N G                                  -
 -                                                                             -
 -------------------------------------------------------------------------------
 SUBROUTINE                       CALLS  ASD         SELF TIME        TOTAL TIME
                                MAXIMUM       AVERAGE  MAXIMUM  AVERAGE  MAXIMUM
 CP2K                                 1  1.0     0.12     0.41 11299.11 11299.22
 qs_energies                          1  2.0     0.00     0.01 11297.89 11298.01
 mp2_main                             1  3.0     0.01     0.02 11284.17 11284.29
 mp2_gpw_main                         1  4.0     0.01     0.02 11282.28 11282.40
 rpa_ri_compute_en                    1  5.0     0.00     0.00 10577.93 10578.04
 rpa_num_int                          1  6.0     0.21     0.31 10082.84 10082.96
 dbt_total                         1907  9.8     0.01     0.02  5255.08  5255.14
 dbt_contract                       765 11.0     0.05     0.07  4738.93  4741.35
 dbt_tas_total                     1206 13.4    22.74    26.88  4664.89  4664.93
 dbt_tas_multiply                  1065 12.8     0.00     0.00  4660.66  4660.71
 compute_QP_energies                  1  7.0     0.00     0.01  4032.86  4032.90
 compute_self_energy_cubic_gw_k       1  8.0     0.12     0.14  4032.69  4032.74
 rpa_num_int_RPA_matrix_operati      10  7.0     0.00     0.00  3918.79  3918.85
 invert_eps_compute_W_and_Erpa_      10  8.0     0.00     0.00  3918.77  3918.81
 cp_cfm_heevd                       441 10.2  3160.47  3162.04  3160.47  3162.04
 dbt_tas_dbm                       1065 14.8     0.00     0.00  3124.10  3124.14
 cp_cfm_power                       312  9.7     0.26     0.44  3049.38  3050.28
 compute_Q_kp_RPA                   260  9.0     0.08     0.18  3036.79  3037.63
 dbm_multiply                      1065 16.8  2420.33  2650.54  2420.33  2650.54
 compute_mat_P_omega                  1  7.0     0.00     0.00  2126.39  2126.41
 compute_mat_P_omega_contract        10  8.0     3.26     3.62  2108.72  2108.73
 parallel_gemm_cfm                 4194 10.2     0.01     0.02  1998.62  2004.52
 parallel_gemm_cfm_cosma           4194 11.2  1998.60  2004.51  1998.60  2004.51
 contract_to_self_energy            198  9.0     0.00     0.01  1933.88  1934.46
 dbt_tas_mm_2                       289 15.0     0.00     0.00  1644.51  1644.53
 mp_sync                           8701 12.6   937.83  1486.41   937.83  1486.41
 tensor_operation_3c_W               99  9.0     0.00     0.00  1225.60  1226.16
 mp_waitall_2                      5458 16.6   864.52   966.81   864.52   966.81
 compute_mat_P_omega_calc_P_t        90  9.0     0.00     0.00   842.46   842.47
 trafo_to_mo_and_kpoints             21  9.0     0.30     0.37   821.70   821.71
 compute_Wc_real_space_tau_GW       260  9.0     0.00     0.00   752.68   752.89
 mp2_ri_gpw_compute_in                1  5.0     0.01     0.02   704.32   704.33
 get_2c_integrals                     1  6.0     0.00     0.00   673.74   673.75
 dbt_tas_mm_3N                      198 16.5     0.00     0.00   561.74   649.30
 compute_mat_P_omega_calc_M_occ      90  9.0     3.28     3.61   641.55   641.56
 dbt_tas_communicate_buffer        1955 17.3     0.34     0.53   599.24   617.12
 dbt_tas_replicate                  928 15.0    20.19    68.36   573.17   588.44
 mp_isend_dv                     618584 16.4   105.26   560.94   105.26   560.94
 dbt_tas_replicate_communicate_     717 16.3     0.08     0.13   538.07   552.76
 inversion_of_M_and_mult_with_c       1  7.0     0.00     0.00   551.88   551.89
 dbm_redistribute                  2394 15.8   461.84   532.66   461.84   532.66
 get_bandstruc_and_k_dependent_       1  6.0     0.00     0.00   495.08   495.09
 create_kp_and_calc_kp_orbitals       3  7.0     0.00     0.01   495.08   495.09
 compute_Wc_real_space_tau_GW_3     260 10.0     0.00     0.00   485.26   486.66
 dbt_copy                           949 10.8     0.06     0.08   428.53   474.12
 dbt_reshape                        929 11.8    42.03    46.37   425.72   471.14
 cp_cfm_geeig                       129  8.0     0.00     0.00   463.71   463.97
 dbt_communicate_buffer             929 12.8     0.23     0.27   371.52   412.13
 convert_to_new_pgrid              3195 14.8    42.25    72.02   332.11   379.63
 dbt_tas_mm_3T                      396 16.5     0.00     0.00   292.87   345.51
 compute_mat_P_omega_calc_M_vir      90  9.0     0.00     0.00   337.55   337.55
 dbt_tas_mm_1N                      182 15.0     0.00     0.00   197.73   280.91
 compute_Wc_real_space_tau_GW_2     260 10.0     0.02     0.02   260.52   260.95
 cp_cfm_cholesky_invert             260 11.0   258.21   258.54   258.21   258.54
 copy_dbcsr_to_fm                  3836 10.5     0.06     0.07   151.10   186.95
 mp_alltoall_d11v                 45813 12.9   123.09   138.20   123.09   138.20
 real_space_to_kpoint_transform      37  9.8     1.92     3.36   133.05   133.15
 dbcsr_new_transposed              7452 10.9     0.24     0.45   130.57   132.03
 dbcsr_redistribute                7448 11.9     1.10     1.92   130.26   131.83
 mp_sum_l                          6490 14.1    92.68   131.15    92.68   131.15
 mp_alltoall_i22                  15269 12.7    79.78   126.78    79.78   126.78
 dbcsr_desymmetrize_deep           3896 11.4     0.26     0.35    88.13   124.11
 compute_mat_P_omega_copy_M_occ      90  9.0     0.00     0.00   123.38   123.54
 compute_V_by_lattice_sum             1  7.0     0.00     0.00   115.87   115.87
 build_2c_coulomb_matrix_kp           2  8.0     0.00     0.00    62.36   114.13
 lattice_sum                          2  9.0     1.51     2.71    62.36   114.13
 -------------------------------------------------------------------------------

 The number of warnings for this run is : 2
 
 -------------------------------------------------------------------------------
  **** **** ******  **  PROGRAM ENDED AT                 2023-05-25 15:20:55.871
 ***** ** ***  *** **   PROGRAM RAN ON                                  n2cn0175
 **    ****   ******    PROGRAM RAN BY                                  eprop2d1
 ***** **    ** ** **   PROGRAM PROCESS ID                                604810
  **** **  *******  **  PROGRAM STOPPED IN /scratch/hpc-prf-eprop2d/eprop2d1_Jan
                                           /02_MoS2_MoSe2_WS2_WSe2/3_WS2/10x10_w
                                           ith_PBE/12_reg_RI_1e-2_TZV2P_bigger_R
                                           I
