 DBCSR| CPU Multiplication driver                                           XSMM (U)
 DBCSR| Multrec recursion limit                                              512 (U)
 DBCSR| Multiplication stack size                                           1000 (D)
 DBCSR| Maximum elements for images                                    UNLIMITED (U)
 DBCSR| Multiplicative factor virtual images                                   1 (U)
 DBCSR| Use multiplication densification                                       T (D)
 DBCSR| Multiplication size stacks                                             3 (U)
 DBCSR| Use memory pool for CPU allocation                                     F (U)
 DBCSR| Number of 3D layers                                               SINGLE (U)
 DBCSR| Use MPI memory allocation                                              F (U)
 DBCSR| Use RMA algorithm                                                      F (U)
 DBCSR| Use Communication thread                                               T (U)
 DBCSR| Communication thread load                                             75 (D)
 DBCSR| MPI: My process id                                                     0
 DBCSR| MPI: Number of processes                                            1520
 DBCSR| OMP: Current number of threads                                         4
 DBCSR| OMP: Max number of threads                                             4
 DBCSR| Split modifier for TAS multiplication algorithm                  1.0E+00 (U)


  **** **** ******  **  PROGRAM STARTED AT               2023-06-02 02:36:07.400
 ***** ** ***  *** **   PROGRAM STARTED ON                              n2cn0170
 **    ****   ******    PROGRAM STARTED BY                              eprop2d1
 ***** **    ** ** **   PROGRAM PROCESS ID                                713000
  **** **  *******  **  PROGRAM STARTED IN /scratch/hpc-prf-eprop2d/eprop2d1_Jan
                                           /02_MoS2_MoSe2_WS2_WSe2/4_WSe2/10x10/
                                           8_reg_RI_1e-2_TZVP_huge_RI

 CP2K| version string:                 CP2K version 2023.1 (Development Version)
 CP2K| source code revision number:                                  git:a5f008f
 CP2K| cp2kflags: omp libint fftw3 libxc elpa parallel scalapack cosma xsmm plum
 CP2K|            ed2 spglib sirius libvori libbqb libvdwxc
 CP2K| is freely available from                            https://www.cp2k.org/
 CP2K| Program compiled at                         Tue Apr 11 10:47:55 CEST 2023
 CP2K| Program compiled on                                              n2login5
 CP2K| Program compiled for                                                local
 CP2K| Data directory path    /opt/software/pc2/EB-SW/software/CP2K/2023.1-foss-
 CP2K| Input file name                                                    GW.inp

 GLOBAL| Force Environment number                                              1
 GLOBAL| Basis set file name                                        BASIS_MOLOPT
 GLOBAL| Potential file name                                      GTH_POTENTIALS
 GLOBAL| MM Potential file name                                     MM_POTENTIAL
 GLOBAL| Coordinate file name                                      __STD_INPUT__
 GLOBAL| Method name                                                        CP2K
 GLOBAL| Project name                                                       MoS2
 GLOBAL| Run type                                                         ENERGY
 GLOBAL| FFT library                                                       FFTW3
 GLOBAL| Diagonalization library                                            ELPA
 GLOBAL| DGEMM library                                                      BLAS
 GLOBAL| Minimum number of eigenvectors for ELPA usage                        16
 GLOBAL| Orthonormality check for eigenvectors                          DISABLED
 GLOBAL| Matrix multiplication library                                     COSMA
 GLOBAL| All-to-all communication in single precision                          F
 GLOBAL| FFTs using library dependent lengths                                  F
 GLOBAL| Grid backend                                                       AUTO
 GLOBAL| Global print level                                               MEDIUM
 GLOBAL| MPI I/O enabled                                                       T
 GLOBAL| Total number of message passing processes                          1520
 GLOBAL| Number of threads for this process                                    4
 GLOBAL| This output is from process                                           0
 GLOBAL| Stack size for threads created by OpenMP (OMP_STACKSIZE)        default
 GLOBAL| CPU model name                          AMD EPYC 7763 64-Core Processor
 GLOBAL| CPUID                                                              1002
 GLOBAL| Compiled for CPUID                                                    0

 *** HINT in environment.F:882 :: The compiler target flags (generic) used ***
 *** to build this binary cannot exploit all extensions of this CPU model  ***
 *** (x86_avx2). Consider compiler target flags as part of FCFLAGS and     ***
 *** CFLAGS (ARCH file).                                                   ***


 MEMORY| system memory details [Kb]
 MEMORY|                        rank 0           min           max       average
 MEMORY| MemTotal            263914152     263914148     263914156     263914150
 MEMORY| MemFree             243095996     230762488     254035492     244101460
 MEMORY| Buffers                210720         56452        361304        246620
 MEMORY| Cached                6393844       3845024      14654104       6561781
 MEMORY| Slab                  8536060       1447504      13803212       7322199
 MEMORY| SReclaimable           282988        203644        580704        300694
 MEMORY| MemLikelyFree       249983548     244456180     258204568     251210557


 *** Fundamental physical constants (SI units) ***

 *** Literature: B. J. Mohr and B. N. Taylor,
 ***             CODATA recommended values of the fundamental physical
 ***             constants: 2006, Web Version 5.1
 ***             http://physics.nist.gov/constants

 Speed of light in vacuum [m/s]                             2.99792458000000E+08
 Magnetic constant or permeability of vacuum [N/A**2]       1.25663706143592E-06
 Electric constant or permittivity of vacuum [F/m]          8.85418781762039E-12
 Planck constant (h) [J*s]                                  6.62606896000000E-34
 Planck constant (h-bar) [J*s]                              1.05457162825177E-34
 Elementary charge [C]                                      1.60217648700000E-19
 Electron mass [kg]                                         9.10938215000000E-31
 Electron g factor [ ]                                     -2.00231930436220E+00
 Proton mass [kg]                                           1.67262163700000E-27
 Fine-structure constant                                    7.29735253760000E-03
 Rydberg constant [1/m]                                     1.09737315685270E+07
 Avogadro constant [1/mol]                                  6.02214179000000E+23
 Boltzmann constant [J/K]                                   1.38065040000000E-23
 Atomic mass unit [kg]                                      1.66053878200000E-27
 Bohr radius [m]                                            5.29177208590000E-11

 *** Conversion factors ***

 [u] -> [a.u.]                                              1.82288848426455E+03
 [Angstrom] -> [Bohr] = [a.u.]                              1.88972613288564E+00
 [a.u.] = [Bohr] -> [Angstrom]                              5.29177208590000E-01
 [a.u.] -> [s]                                              2.41888432650478E-17
 [a.u.] -> [fs]                                             2.41888432650478E-02
 [a.u.] -> [J]                                              4.35974393937059E-18
 [a.u.] -> [N]                                              8.23872205491840E-08
 [a.u.] -> [K]                                              3.15774647902944E+05
 [a.u.] -> [kJ/mol]                                         2.62549961709828E+03
 [a.u.] -> [kcal/mol]                                       6.27509468713739E+02
 [a.u.] -> [Pa]                                             2.94210107994716E+13
 [a.u.] -> [bar]                                            2.94210107994716E+08
 [a.u.] -> [atm]                                            2.90362800883016E+08
 [a.u.] -> [eV]                                             2.72113838565563E+01
 [a.u.] -> [Hz]                                             6.57968392072181E+15
 [a.u.] -> [1/cm] (wave numbers)                            2.19474631370540E+05
 [a.u./Bohr**2] -> [1/cm]                                   5.14048714338585E+03
 

 CELL_TOP| Volume [angstrom^3]:                                     14309.893302
 CELL_TOP| Vector a [angstrom    33.190     0.000     0.000   |a| =    33.190000
 CELL_TOP| Vector b [angstrom   -16.595    28.743     0.000   |b| =    33.190000
 CELL_TOP| Vector c [angstrom     0.000     0.000    15.000   |c| =    15.000000
 CELL_TOP| Angle (b,c), alpha [degree]:                                90.000000
 CELL_TOP| Angle (a,c), beta  [degree]:                                90.000000
 CELL_TOP| Angle (a,b), gamma [degree]:                               120.000000
 CELL_TOP| Numerically orthorhombic:                                          NO
 CELL_TOP| Periodicity                                                        XY

 CELL_UC| Volume [angstrom^3]:                                        143.098933
 CELL_UC| Vector a [angstrom]     3.319     0.000     0.000   |a| =     3.319000
 CELL_UC| Vector b [angstrom]    -1.659     2.874     0.000   |b| =     3.319000
 CELL_UC| Vector c [angstrom]     0.000     0.000    15.000   |c| =    15.000000
 CELL_UC| Angle (b,c), alpha [degree]:                                 90.000000
 CELL_UC| Angle (a,c), beta  [degree]:                                 90.000000
 CELL_UC| Angle (a,b), gamma [degree]:                                120.000000
 CELL_UC| Numerically orthorhombic:                                           NO
 CELL_UC| Periodicity                                                         XY

 GENERATE|  Preliminary Number of Bonds generated:                             0
 GENERATE|  Achieved consistency in connectivity generation.

 CELL| Volume [angstrom^3]:                                         14309.893302
 CELL| Vector a [angstrom]:      33.190     0.000     0.000   |a| =    33.190000
 CELL| Vector b [angstrom]:     -16.595    28.743     0.000   |b| =    33.190000
 CELL| Vector c [angstrom]:       0.000     0.000    15.000   |c| =    15.000000
 CELL| Angle (b,c), alpha [degree]:                                    90.000000
 CELL| Angle (a,c), beta  [degree]:                                    90.000000
 CELL| Angle (a,b), gamma [degree]:                                   120.000000
 CELL| Numerically orthorhombic:                                              NO
 CELL| Periodicity                                                            XY

 CELL_REF| Volume [angstrom^3]:                                     14309.893302
 CELL_REF| Vector a [angstrom    33.190     0.000     0.000   |a| =    33.190000
 CELL_REF| Vector b [angstrom   -16.595    28.743     0.000   |b| =    33.190000
 CELL_REF| Vector c [angstrom     0.000     0.000    15.000   |c| =    15.000000
 CELL_REF| Angle (b,c), alpha [degree]:                                90.000000
 CELL_REF| Angle (a,c), beta  [degree]:                                90.000000
 CELL_REF| Angle (a,b), gamma [degree]:                               120.000000
 CELL_REF| Numerically orthorhombic:                                          NO
 CELL_REF| Periodicity                                                        XY

 *******************************************************************************
 *******************************************************************************
 **                                                                           **
 **     #####                         ##              ##                      **
 **    ##   ##            ##          ##              ##                      **
 **   ##     ##                       ##            ######                    **
 **   ##     ##  ##   ##  ##   #####  ##  ##   ####   ##    #####    #####    **
 **   ##     ##  ##   ##  ##  ##      ## ##   ##      ##   ##   ##  ##   ##   **
 **   ##  ## ##  ##   ##  ##  ##      ####     ###    ##   ######   ######    **
 **    ##  ###   ##   ##  ##  ##      ## ##      ##   ##   ##       ##        **
 **     #######   #####   ##   #####  ##  ##  ####    ##    #####   ##        **
 **           ##                                                    ##        **
 **                                                                           **
 **                                                ... make the atoms dance   **
 **                                                                           **
 **            Copyright (C) by CP2K developers group (2000-2023)             **
 **                      J. Chem. Phys. 152, 194103 (2020)                    **
 **                                                                           **
 *******************************************************************************

 DFT| Spin restricted Kohn-Sham (RKS) calculation                            RKS
 DFT| Multiplicity                                                             1
 DFT| Number of spin states                                                    1
 DFT| Charge                                                                   0
 DFT| Self-interaction correction (SIC)                                       NO
 DFT| Cutoffs: density                                              1.000000E-10
 DFT|          gradient                                             1.000000E-10
 DFT|          tau                                                  1.000000E-10
 DFT|          cutoff_smoothing_range                               0.000000E+00
 DFT| XC density smoothing                                                  NONE
 DFT| XC derivatives                                                          PW

 FUNCTIONAL| PADE:
 FUNCTIONAL| S. Goedecker, M. Teter and J. Hutter, Phys. Rev. B 54, 1703 (1996) 


 QS| Method:                                                                 GPW
 QS| Density plane wave grid type                        NON-SPHERICAL FULLSPACE
 QS| Number of grid levels:                                                    4
 QS| Density cutoff [a.u.]:                                                250.0
 QS| Multi grid cutoff [a.u.]: 1) grid level                               250.0
 QS|                           2) grid level                                83.3
 QS|                           3) grid level                                27.8
 QS|                           4) grid level                                 9.3
 QS| Grid level progression factor:                                          3.0
 QS| Relative density cutoff [a.u.]:                                        50.0
 QS| Interaction thresholds: eps_pgf_orb:                                1.0E-40
 QS|                         eps_filter_matrix:                          0.0E+00
 QS|                         eps_core_charge:                            1.0E-42
 QS|                         eps_rho_gspace:                             1.0E-40
 QS|                         eps_rho_rspace:                             1.0E-40
 QS|                         eps_gvg_rspace:                             1.0E-20
 QS|                         eps_ppl:                                    1.0E-02
 QS|                         eps_ppnl:                                   1.0E-22


 ATOMIC KIND INFORMATION

  1. Atomic kind: W                                     Number of atoms:     100

     Orbital Basis Set                                        TZVP-MOLOPT-SR-GTH

       Number of orbital shell sets:                                           1
       Number of orbital shells:                                              11
       Number of primitive Cartesian functions:                                6
       Number of Cartesian basis functions:                                   41
       Number of spherical basis functions:                                   35
       Norm type:                                                              2

       Normalised Cartesian orbitals:

                        Set   Shell   Orbital            Exponent    Coefficient

                          1       1    2s                3.103254       0.430480
                                                         2.893835       0.495799
                                                         1.106151      -0.749253
                                                         0.501100      -0.216095
                                                         0.214447       0.032697
                                                         0.074663      -0.009674

                          1       2    3s                3.103254      -0.838448
                                                         2.893835       0.659302
                                                         1.106151       0.041187
                                                         0.501100      -0.061336
                                                         0.214447       0.079342
                                                         0.074663       0.078749

                          1       3    4s                3.103254       1.710384
                                                         2.893835      -1.029561
                                                         1.106151      -0.302972
                                                         0.501100       0.071480
                                                         0.214447      -0.305493
                                                         0.074663       0.172896

                          1       4    5s                3.103254       1.231280
                                                         2.893835      -1.395772
                                                         1.106151       0.316405
                                                         0.501100      -0.291407
                                                         0.214447       0.253777
                                                         0.074663       0.028869

                          1       5    3px               3.103254       6.595006
                                                         2.893835      -5.436829
                                                         1.106151      -0.973670
                                                         0.501100      -0.261913
                                                         0.214447      -0.013952
                                                         0.074663       0.001100
                          1       5    3py               3.103254       6.595006
                                                         2.893835      -5.436829
                                                         1.106151      -0.973670
                                                         0.501100      -0.261913
                                                         0.214447      -0.013952
                                                         0.074663       0.001100
                          1       5    3pz               3.103254       6.595006
                                                         2.893835      -5.436829
                                                         1.106151      -0.973670
                                                         0.501100      -0.261913
                                                         0.214447      -0.013952
                                                         0.074663       0.001100

                          1       6    4px               3.103254      -0.229699
                                                         2.893835       0.340023
                                                         1.106151      -0.266568
                                                         0.501100      -0.017427
                                                         0.214447       0.062174
                                                         0.074663       0.044896
                          1       6    4py               3.103254      -0.229699
                                                         2.893835       0.340023
                                                         1.106151      -0.266568
                                                         0.501100      -0.017427
                                                         0.214447       0.062174
                                                         0.074663       0.044896
                          1       6    4pz               3.103254      -0.229699
                                                         2.893835       0.340023
                                                         1.106151      -0.266568
                                                         0.501100      -0.017427
                                                         0.214447       0.062174
                                                         0.074663       0.044896

                          1       7    5px               3.103254       1.468072
                                                         2.893835      -1.128056
                                                         1.106151       1.371755
                                                         0.501100       0.145890
                                                         0.214447      -0.334609
                                                         0.074663       0.044858
                          1       7    5py               3.103254       1.468072
                                                         2.893835      -1.128056
                                                         1.106151       1.371755
                                                         0.501100       0.145890
                                                         0.214447      -0.334609
                                                         0.074663       0.044858
                          1       7    5pz               3.103254       1.468072
                                                         2.893835      -1.128056
                                                         1.106151       1.371755
                                                         0.501100       0.145890
                                                         0.214447      -0.334609
                                                         0.074663       0.044858

                          1       8    4dx2              3.103254      -0.073430
                                                         2.893835       0.214195
                                                         1.106151       0.645387
                                                         0.501100       0.199794
                                                         0.214447       0.032379
                                                         0.074663       0.003876
                          1       8    4dxy              3.103254      -0.127184
                                                         2.893835       0.370997
                                                         1.106151       1.117844
                                                         0.501100       0.346053
                                                         0.214447       0.056082
                                                         0.074663       0.006714
                          1       8    4dxz              3.103254      -0.127184
                                                         2.893835       0.370997
                                                         1.106151       1.117844
                                                         0.501100       0.346053
                                                         0.214447       0.056082
                                                         0.074663       0.006714
                          1       8    4dy2              3.103254      -0.073430
                                                         2.893835       0.214195
                                                         1.106151       0.645387
                                                         0.501100       0.199794
                                                         0.214447       0.032379
                                                         0.074663       0.003876
                          1       8    4dyz              3.103254      -0.127184
                                                         2.893835       0.370997
                                                         1.106151       1.117844
                                                         0.501100       0.346053
                                                         0.214447       0.056082
                                                         0.074663       0.006714
                          1       8    4dz2              3.103254      -0.073430
                                                         2.893835       0.214195
                                                         1.106151       0.645387
                                                         0.501100       0.199794
                                                         0.214447       0.032379
                                                         0.074663       0.003876

                          1       9    5dx2              3.103254       0.131236
                                                         2.893835      -0.269688
                                                         1.106151      -0.639375
                                                         0.501100      -0.218460
                                                         0.214447       0.054987
                                                         0.074663       0.011491
                          1       9    5dxy              3.103254       0.227308
                                                         2.893835      -0.467113
                                                         1.106151      -1.107431
                                                         0.501100      -0.378383
                                                         0.214447       0.095240
                                                         0.074663       0.019903
                          1       9    5dxz              3.103254       0.227308
                                                         2.893835      -0.467113
                                                         1.106151      -1.107431
                                                         0.501100      -0.378383
                                                         0.214447       0.095240
                                                         0.074663       0.019903
                          1       9    5dy2              3.103254       0.131236
                                                         2.893835      -0.269688
                                                         1.106151      -0.639375
                                                         0.501100      -0.218460
                                                         0.214447       0.054987
                                                         0.074663       0.011491
                          1       9    5dyz              3.103254       0.227308
                                                         2.893835      -0.467113
                                                         1.106151      -1.107431
                                                         0.501100      -0.378383
                                                         0.214447       0.095240
                                                         0.074663       0.019903
                          1       9    5dz2              3.103254       0.131236
                                                         2.893835      -0.269688
                                                         1.106151      -0.639375
                                                         0.501100      -0.218460
                                                         0.214447       0.054987
                                                         0.074663       0.011491

                          1      10    6dx2              3.103254      11.532441
                                                         2.893835     -11.449410
                                                         1.106151       0.939358
                                                         0.501100      -0.005417
                                                         0.214447      -0.145639
                                                         0.074663       0.020374
                          1      10    6dxy              3.103254      19.974774
                                                         2.893835     -19.830960
                                                         1.106151       1.627016
                                                         0.501100      -0.009382
                                                         0.214447      -0.252255
                                                         0.074663       0.035289
                          1      10    6dxz              3.103254      19.974774
                                                         2.893835     -19.830960
                                                         1.106151       1.627016
                                                         0.501100      -0.009382
                                                         0.214447      -0.252255
                                                         0.074663       0.035289
                          1      10    6dy2              3.103254      11.532441
                                                         2.893835     -11.449410
                                                         1.106151       0.939358
                                                         0.501100      -0.005417
                                                         0.214447      -0.145639
                                                         0.074663       0.020374
                          1      10    6dyz              3.103254      19.974774
                                                         2.893835     -19.830960
                                                         1.106151       1.627016
                                                         0.501100      -0.009382
                                                         0.214447      -0.252255
                                                         0.074663       0.035289
                          1      10    6dz2              3.103254      11.532441
                                                         2.893835     -11.449410
                                                         1.106151       0.939358
                                                         0.501100      -0.005417
                                                         0.214447      -0.145639
                                                         0.074663       0.020374

                          1      11    5fx3              3.103254      -2.194270
                                                         2.893835       2.425274
                                                         1.106151      -0.369945
                                                         0.501100      -0.176940
                                                         0.214447      -0.017061
                                                         0.074663      -0.000241
                          1      11    5fx2y             3.103254      -4.906538
                                                         2.893835       5.423078
                                                         1.106151      -0.827223
                                                         0.501100      -0.395650
                                                         0.214447      -0.038149
                                                         0.074663      -0.000540
                          1      11    5fx2z             3.103254      -4.906538
                                                         2.893835       5.423078
                                                         1.106151      -0.827223
                                                         0.501100      -0.395650
                                                         0.214447      -0.038149
                                                         0.074663      -0.000540
                          1      11    5fxy2             3.103254      -4.906538
                                                         2.893835       5.423078
                                                         1.106151      -0.827223
                                                         0.501100      -0.395650
                                                         0.214447      -0.038149
                                                         0.074663      -0.000540
                          1      11    5fxyz             3.103254      -8.498372
                                                         2.893835       9.393047
                                                         1.106151      -1.432792
                                                         0.501100      -0.685285
                                                         0.214447      -0.066076
                                                         0.074663      -0.000935
                          1      11    5fxz2             3.103254      -4.906538
                                                         2.893835       5.423078
                                                         1.106151      -0.827223
                                                         0.501100      -0.395650
                                                         0.214447      -0.038149
                                                         0.074663      -0.000540
                          1      11    5fy3              3.103254      -2.194270
                                                         2.893835       2.425274
                                                         1.106151      -0.369945
                                                         0.501100      -0.176940
                                                         0.214447      -0.017061
                                                         0.074663      -0.000241
                          1      11    5fy2z             3.103254      -4.906538
                                                         2.893835       5.423078
                                                         1.106151      -0.827223
                                                         0.501100      -0.395650
                                                         0.214447      -0.038149
                                                         0.074663      -0.000540
                          1      11    5fyz2             3.103254      -4.906538
                                                         2.893835       5.423078
                                                         1.106151      -0.827223
                                                         0.501100      -0.395650
                                                         0.214447      -0.038149
                                                         0.074663      -0.000540
                          1      11    5fz3              3.103254      -2.194270
                                                         2.893835       2.425274
                                                         1.106151      -0.369945
                                                         0.501100      -0.176940
                                                         0.214447      -0.017061
                                                         0.074663      -0.000241

     RI Auxiliary Basis Set                                   def2-SVP-RIFIT-mod

       Number of orbital shell sets:                                          28
       Number of orbital shells:                                              28
       Number of primitive Cartesian functions:                               28
       Number of Cartesian basis functions:                                  177
       Number of spherical basis functions:                                  128
       Norm type:                                                              2

       Normalised Cartesian orbitals:

                        Set   Shell   Orbital            Exponent    Coefficient

                          1       1    1s                0.208675       0.220046

                          2       1    1fx3              0.253216       0.066959
                          2       1    1fx2y             0.253216       0.149725
                          2       1    1fx2z             0.253216       0.149725
                          2       1    1fxy2             0.253216       0.149725
                          2       1    1fxyz             0.253216       0.259331
                          2       1    1fxz2             0.253216       0.149725
                          2       1    1fy3              0.253216       0.066959
                          2       1    1fy2z             0.253216       0.149725
                          2       1    1fyz2             0.253216       0.149725
                          2       1    1fz3              0.253216       0.066959

                          3       1    1gx4              0.265033       0.028874
                          3       1    1gx3y             0.265033       0.076394
                          3       1    1gx3z             0.265033       0.076394
                          3       1    1gx2y2            0.265033       0.098624
                          3       1    1gx2yz            0.265033       0.170822
                          3       1    1gx2z2            0.265033       0.098624
                          3       1    1gxy3             0.265033       0.076394
                          3       1    1gxy2z            0.265033       0.170822
                          3       1    1gxyz2            0.265033       0.170822
                          3       1    1gxz3             0.265033       0.076394
                          3       1    1gy4              0.265033       0.028874
                          3       1    1gy3z             0.265033       0.076394
                          3       1    1gy2z2            0.265033       0.098624
                          3       1    1gyz3             0.265033       0.076394
                          3       1    1gz4              0.265033       0.028874

                          4       1    1px               0.269126       0.276302
                          4       1    1py               0.269126       0.276302
                          4       1    1pz               0.269126       0.276302

                          5       1    1dx2              0.304026       0.204882
                          5       1    1dxy              0.304026       0.354866
                          5       1    1dxz              0.304026       0.354866
                          5       1    1dy2              0.304026       0.204882
                          5       1    1dyz              0.304026       0.354866
                          5       1    1dz2              0.304026       0.204882

                          6       1    1s                0.364638       0.334431

                          7       1    1fx3              0.470422       0.269806
                          7       1    1fx2y             0.470422       0.603305
                          7       1    1fx2z             0.470422       0.603305
                          7       1    1fxy2             0.470422       0.603305
                          7       1    1fxyz             0.470422       1.044954
                          7       1    1fxz2             0.470422       0.603305
                          7       1    1fy3              0.470422       0.269806
                          7       1    1fy2z             0.470422       0.603305
                          7       1    1fyz2             0.470422       0.603305
                          7       1    1fz3              0.470422       0.269806

                          8       1    1s                0.648984       0.515330

                          9       1    1dx2              0.719090       0.924230
                          9       1    1dxy              0.719090       1.600814
                          9       1    1dxz              0.719090       1.600814
                          9       1    1dy2              0.719090       0.924230
                          9       1    1dyz              0.719090       1.600814
                          9       1    1dz2              0.719090       0.924230

                         10       1    1hx5              0.872710       0.476619
                         10       1    1hx4y             0.872710       1.429858
                         10       1    1hx4z             0.872710       1.429858
                         10       1    1hx3y2            0.872710       2.184143
                         10       1    1hx3yz            0.872710       3.783047
                         10       1    1hx3z2            0.872710       2.184143
                         10       1    1hx2y3            0.872710       2.184143
                         10       1    1hx2y2z           0.872710       4.883893
                         10       1    1hx2yz2           0.872710       4.883893
                         10       1    1hx2z3            0.872710       2.184143
                         10       1    1hxy4             0.872710       1.429858
                         10       1    1hxy3z            0.872710       3.783047
                         10       1    1hxy2z2           0.872710       4.883893
                         10       1    1hxyz3            0.872710       3.783047
                         10       1    1hxz4             0.872710       1.429858
                         10       1    1hy5              0.872710       0.476619
                         10       1    1hy4z             0.872710       1.429858
                         10       1    1hy3z2            0.872710       2.184143
                         10       1    1hy2z3            0.872710       2.184143
                         10       1    1hyz4             0.872710       1.429858
                         10       1    1hz5              0.872710       0.476619

                         11       1    1gx4              0.914481       0.870294
                         11       1    1gx3y             0.914481       2.302581
                         11       1    1gx3z             0.914481       2.302581
                         11       1    1gx2y2            0.914481       2.972619
                         11       1    1gx2yz            0.914481       5.148727
                         11       1    1gx2z2            0.914481       2.972619
                         11       1    1gxy3             0.914481       2.302581
                         11       1    1gxy2z            0.914481       5.148727
                         11       1    1gxyz2            0.914481       5.148727
                         11       1    1gxz3             0.914481       2.302581
                         11       1    1gy4              0.914481       0.870294
                         11       1    1gy3z             0.914481       2.302581
                         11       1    1gy2z2            0.914481       2.972619
                         11       1    1gyz3             0.914481       2.302581
                         11       1    1gz4              0.914481       0.870294

                         12       1    1px               0.967490       1.367723
                         12       1    1py               0.967490       1.367723
                         12       1    1pz               0.967490       1.367723

                         13       1    1dx2              1.179750       2.198072
                         13       1    1dxy              1.179750       3.807173
                         13       1    1dxz              1.179750       3.807173
                         13       1    1dy2              1.179750       2.198072
                         13       1    1dyz              1.179750       3.807173
                         13       1    1dz2              1.179750       2.198072

                         14       1    1fx3              1.281070       2.570357
                         14       1    1fx2y             1.281070       5.747492
                         14       1    1fx2z             1.281070       5.747492
                         14       1    1fxy2             1.281070       5.747492
                         14       1    1fxyz             1.281070       9.954948
                         14       1    1fxz2             1.281070       5.747492
                         14       1    1fy3              1.281070       2.570357
                         14       1    1fy2z             1.281070       5.747492
                         14       1    1fyz2             1.281070       5.747492
                         14       1    1fz3              1.281070       2.570357

                         15       1    1s                1.466370       0.949714

                         16       1    1gx4              1.748350       5.172059
                         16       1    1gx3y             1.748350      13.683982
                         16       1    1gx3z             1.748350      13.683982
                         16       1    1gx2y2            1.748350      17.665944
                         16       1    1gx2yz            1.748350      30.598313
                         16       1    1gx2z2            1.748350      17.665944
                         16       1    1gxy3             1.748350      13.683982
                         16       1    1gxy2z            1.748350      30.598313
                         16       1    1gxyz2            1.748350      30.598313
                         16       1    1gxz3             1.748350      13.683982
                         16       1    1gy4              1.748350       5.172059
                         16       1    1gy3z             1.748350      13.683982
                         16       1    1gy2z2            1.748350      17.665944
                         16       1    1gyz3             1.748350      13.683982
                         16       1    1gz4              1.748350       5.172059

                         17       1    1px               1.939290       3.262072
                         17       1    1py               1.939290       3.262072
                         17       1    1pz               1.939290       3.262072

                         18       1    1s                2.101910       1.244144

                         19       1    1dx2              2.484170       8.090526
                         19       1    1dxy              2.484170      14.013202
                         19       1    1dxz              2.484170      14.013202
                         19       1    1dy2              2.484170       8.090526
                         19       1    1dyz              2.484170      14.013202
                         19       1    1dz2              2.484170       8.090526

                         20       1    1fx3              2.625400      12.916483
                         20       1    1fx2y             2.625400      28.882134
                         20       1    1fx2z             2.625400      28.882134
                         20       1    1fxy2             2.625400      28.882134
                         20       1    1fxyz             2.625400      50.025324
                         20       1    1fxz2             2.625400      28.882134
                         20       1    1fy3              2.625400      12.916483
                         20       1    1fy2z             2.625400      28.882134
                         20       1    1fyz2             2.625400      28.882134
                         20       1    1fz3              2.625400      12.916483

                         21       1    1px               2.934310       5.474224
                         21       1    1py               2.934310       5.474224
                         21       1    1pz               2.934310       5.474224

                         22       1    1s                3.287500       1.740041

                         23       1    1px               4.122050       8.372047
                         23       1    1py               4.122050       8.372047
                         23       1    1pz               4.122050       8.372047

                         24       1    1dx2              4.561580      23.434799
                         24       1    1dxy              4.561580      40.590262
                         24       1    1dxz              4.561580      40.590262
                         24       1    1dy2              4.561580      23.434799
                         24       1    1dyz              4.561580      40.590262
                         24       1    1dz2              4.561580      23.434799

                         25       1    1fx3              5.428920      66.230753
                         25       1    1fx2y             5.428920     148.096466
                         25       1    1fx2z             5.428920     148.096466
                         25       1    1fxy2             5.428920     148.096466
                         25       1    1fxyz             5.428920     256.510604
                         25       1    1fxz2             5.428920     148.096466
                         25       1    1fy3              5.428920      66.230753
                         25       1    1fy2z             5.428920     148.096466
                         25       1    1fyz2             5.428920     148.096466
                         25       1    1fz3              5.428920      66.230753

                         26       1    1s                5.457930       2.544961

                         27       1    1dx2              7.997160      62.596072
                         27       1    1dxy              7.997160     108.419577
                         27       1    1dxz              7.997160     108.419577
                         27       1    1dy2              7.997160      62.596072
                         27       1    1dyz              7.997160     108.419577
                         27       1    1dz2              7.997160      62.596072

                         28       1    1px               9.577750      24.017039
                         28       1    1py               9.577750      24.017039
                         28       1    1pz               9.577750      24.017039

       Atomic covalent radius [Angstrom]:                                  1.300

       Atomic van der Waals radius [Angstrom]:                             1.670

     GTH Potential information for                                  GTH-PADE-q14

       Description:                       Goedecker-Teter-Hutter pseudopotential
                                           Goedecker et al., PRB 54, 1703 (1996)
                                          Hartwigsen et al., PRB 58, 3641 (1998)
                                                      Krack, TCA 114, 145 (2005)

       Gaussian exponent of the core charge distribution:               1.714678
       Electronic configuration (s p d ...):                           4   6   4

       Parameters of the local part of the GTH pseudopotential:

                          rloc        C1          C2          C3          C4
                        0.540000    4.800251    0.901544

       Parameters of the non-local part of the GTH pseudopotential:

                   l      r(l)      h(i,j,l)

                   0    0.418570    2.692204    2.332557    0.297239
                                    2.332557   -6.022638   -0.767467
                                    0.297239   -0.767467    1.218316
                   1    0.449555   -0.702084    1.036024
                                    1.036024   -2.451680
                   2    0.399602    1.177436    2.448917
                                    2.448917   -5.553621

  2. Atomic kind: Se                                    Number of atoms:     200

     Orbital Basis Set                                        TZVP-MOLOPT-SR-GTH

       Number of orbital shell sets:                                           1
       Number of orbital shells:                                               7
       Number of primitive Cartesian functions:                                4
       Number of Cartesian basis functions:                                   18
       Number of spherical basis functions:                                   17
       Norm type:                                                              2

       Normalised Cartesian orbitals:

                        Set   Shell   Orbital            Exponent    Coefficient

                          1       1    2s                1.465689       0.302678
                                                         1.029752      -0.073168
                                                         0.303575      -0.202711
                                                         0.107173      -0.059713

                          1       2    3s                1.465689      -0.155491
                                                         1.029752       0.241663
                                                         0.303575      -0.363851
                                                         0.107173       0.233571

                          1       3    4s                1.465689       1.273873
                                                         1.029752      -0.825574
                                                         0.303575       0.111847
                                                         0.107173       0.081995

                          1       4    3px               1.465689       0.612976
                                                         1.029752      -0.484874
                                                         0.303575      -0.234718
                                                         0.107173      -0.021524
                          1       4    3py               1.465689       0.612976
                                                         1.029752      -0.484874
                                                         0.303575      -0.234718
                                                         0.107173      -0.021524
                          1       4    3pz               1.465689       0.612976
                                                         1.029752      -0.484874
                                                         0.303575      -0.234718
                                                         0.107173      -0.021524

                          1       5    4px               1.465689       0.383325
                                                         1.029752      -0.329453
                                                         0.303575      -0.075164
                                                         0.107173       0.102417
                          1       5    4py               1.465689       0.383325
                                                         1.029752      -0.329453
                                                         0.303575      -0.075164
                                                         0.107173       0.102417
                          1       5    4pz               1.465689       0.383325
                                                         1.029752      -0.329453
                                                         0.303575      -0.075164
                                                         0.107173       0.102417

                          1       6    5px               1.465689       3.760520
                                                         1.029752      -2.704359
                                                         0.303575       0.485527
                                                         0.107173      -0.024362
                          1       6    5py               1.465689       3.760520
                                                         1.029752      -2.704359
                                                         0.303575       0.485527
                                                         0.107173      -0.024362
                          1       6    5pz               1.465689       3.760520
                                                         1.029752      -2.704359
                                                         0.303575       0.485527
                                                         0.107173      -0.024362

                          1       7    4dx2              1.465689       0.513111
                                                         1.029752      -0.664167
                                                         0.303575      -0.134856
                                                         0.107173      -0.008700
                          1       7    4dxy              1.465689       0.888735
                                                         1.029752      -1.150371
                                                         0.303575      -0.233577
                                                         0.107173      -0.015069
                          1       7    4dxz              1.465689       0.888735
                                                         1.029752      -1.150371
                                                         0.303575      -0.233577
                                                         0.107173      -0.015069
                          1       7    4dy2              1.465689       0.513111
                                                         1.029752      -0.664167
                                                         0.303575      -0.134856
                                                         0.107173      -0.008700
                          1       7    4dyz              1.465689       0.888735
                                                         1.029752      -1.150371
                                                         0.303575      -0.233577
                                                         0.107173      -0.015069
                          1       7    4dz2              1.465689       0.513111
                                                         1.029752      -0.664167
                                                         0.303575      -0.134856
                                                         0.107173      -0.008700

     RI Auxiliary Basis Set                                   def2-SVP-RIFIT-mod

       Number of orbital shell sets:                                          21
       Number of orbital shells:                                              21
       Number of primitive Cartesian functions:                               21
       Number of Cartesian basis functions:                                  120
       Number of spherical basis functions:                                   91
       Norm type:                                                              2

       Normalised Cartesian orbitals:

                        Set   Shell   Orbital            Exponent    Coefficient

                          1       1    1s                0.198146       0.211665

                          2       1    1dx2              0.205873       0.103564
                          2       1    1dxy              0.205873       0.179379
                          2       1    1dxz              0.205873       0.179379
                          2       1    1dy2              0.205873       0.103564
                          2       1    1dyz              0.205873       0.179379
                          2       1    1dz2              0.205873       0.103564

                          3       1    1px               0.271607       0.279490
                          3       1    1py               0.271607       0.279490
                          3       1    1pz               0.271607       0.279490

                          4       1    1fx3              0.330155       0.121638
                          4       1    1fx2y             0.330155       0.271990
                          4       1    1fx2z             0.330155       0.271990
                          4       1    1fxy2             0.330155       0.271990
                          4       1    1fxyz             0.330155       0.471101
                          4       1    1fxz2             0.330155       0.271990
                          4       1    1fy3              0.330155       0.121638
                          4       1    1fy2z             0.330155       0.271990
                          4       1    1fyz2             0.330155       0.271990
                          4       1    1fz3              0.330155       0.121638

                          5       1    1s                0.368618       0.337165

                          6       1    1dx2              0.492940       0.477308
                          6       1    1dxy              0.492940       0.826723
                          6       1    1dxz              0.492940       0.826723
                          6       1    1dy2              0.492940       0.477308
                          6       1    1dyz              0.492940       0.826723
                          6       1    1dz2              0.492940       0.477308

                          7       1    1px               0.522961       0.633908
                          7       1    1py               0.522961       0.633908
                          7       1    1pz               0.522961       0.633908

                          8       1    1s                0.572587       0.469128

                          9       1    1fx3              0.711060       0.683508
                          9       1    1fx2y             0.711060       1.528371
                          9       1    1fx2z             0.711060       1.528371
                          9       1    1fxy2             0.711060       1.528371
                          9       1    1fxyz             0.711060       2.647216
                          9       1    1fxz2             0.711060       1.528371
                          9       1    1fy3              0.711060       0.683508
                          9       1    1fy2z             0.711060       1.528371
                          9       1    1fyz2             0.711060       1.528371
                          9       1    1fz3              0.711060       0.683508

                         10       1    1dx2              0.761541       1.021817
                         10       1    1dxy              0.761541       1.769839
                         10       1    1dxz              0.761541       1.769839
                         10       1    1dy2              0.761541       1.021817
                         10       1    1dyz              0.761541       1.769839
                         10       1    1dz2              0.761541       1.021817

                         11       1    1gx4              0.762837       0.528594
                         11       1    1gx3y             0.762837       1.398528
                         11       1    1gx3z             0.762837       1.398528
                         11       1    1gx2y2            0.762837       1.805491
                         11       1    1gx2yz            0.762837       3.127203
                         11       1    1gx2z2            0.762837       1.805491
                         11       1    1gxy3             0.762837       1.398528
                         11       1    1gxy2z            0.762837       3.127203
                         11       1    1gxyz2            0.762837       3.127203
                         11       1    1gxz3             0.762837       1.398528
                         11       1    1gy4              0.762837       0.528594
                         11       1    1gy3z             0.762837       1.398528
                         11       1    1gy2z2            0.762837       1.805491
                         11       1    1gyz3             0.762837       1.398528
                         11       1    1gz4              0.762837       0.528594

                         12       1    1px               1.002555       1.429965
                         12       1    1py               1.002555       1.429965
                         12       1    1pz               1.002555       1.429965

                         13       1    1dx2              1.339632       2.745579
                         13       1    1dxy              1.339632       4.755483
                         13       1    1dxz              1.339632       4.755483
                         13       1    1dy2              1.339632       2.745579
                         13       1    1dyz              1.339632       4.755483
                         13       1    1dz2              1.339632       2.745579

                         14       1    1fx3              1.492646       3.625412
                         14       1    1fx2y             1.492646       8.106668
                         14       1    1fx2z             1.492646       8.106668
                         14       1    1fxy2             1.492646       8.106668
                         14       1    1fxyz             1.492646      14.041160
                         14       1    1fxz2             1.492646       8.106668
                         14       1    1fy3              1.492646       3.625412
                         14       1    1fy2z             1.492646       8.106668
                         14       1    1fyz2             1.492646       8.106668
                         14       1    1fz3              1.492646       3.625412

                         15       1    1px               1.705131       2.777392
                         15       1    1py               1.705131       2.777392
                         15       1    1pz               1.705131       2.777392

                         16       1    1s                2.077977       1.233504

                         17       1    1fx3              2.732672      14.134362
                         17       1    1fx2y             2.732672      31.605393
                         17       1    1fx2z             2.732672      31.605393
                         17       1    1fxy2             2.732672      31.605393
                         17       1    1fxyz             2.732672      54.742147
                         17       1    1fxz2             2.732672      31.605393
                         17       1    1fy3              2.732672      14.134362
                         17       1    1fy2z             2.732672      31.605393
                         17       1    1fyz2             2.732672      31.605393
                         17       1    1fz3              2.732672      14.134362

                         18       1    1gx4              2.959815      21.999507
                         18       1    1gx3y             2.959815      58.205224
                         18       1    1gx3z             2.959815      58.205224
                         18       1    1gx2y2            2.959815      75.142621
                         18       1    1gx2yz            2.959815     130.150837
                         18       1    1gx2z2            2.959815      75.142621
                         18       1    1gxy3             2.959815      58.205224
                         18       1    1gxy2z            2.959815     130.150837
                         18       1    1gxyz2            2.959815     130.150837
                         18       1    1gxz3             2.959815      58.205224
                         18       1    1gy4              2.959815      21.999507
                         18       1    1gy3z             2.959815      58.205224
                         18       1    1gy2z2            2.959815      75.142621
                         18       1    1gyz3             2.959815      58.205224
                         18       1    1gz4              2.959815      21.999507

                         19       1    1dx2              3.469869      14.519688
                         19       1    1dxy              3.469869      25.148837
                         19       1    1dxz              3.469869      25.148837
                         19       1    1dy2              3.469869      14.519688
                         19       1    1dyz              3.469869      25.148837
                         19       1    1dz2              3.469869      14.519688

                         20       1    1px               3.832640       7.643857
                         20       1    1py               3.832640       7.643857
                         20       1    1pz               3.832640       7.643857

                         21       1    1s                4.797700       2.310388

       Atomic covalent radius [Angstrom]:                                  1.160

       Atomic van der Waals radius [Angstrom]:                             1.900

     GTH Potential information for                                   GTH-PADE-q6

       Description:                       Goedecker-Teter-Hutter pseudopotential
                                           Goedecker et al., PRB 54, 1703 (1996)
                                          Hartwigsen et al., PRB 58, 3641 (1998)
                                                      Krack, TCA 114, 145 (2005)

       Gaussian exponent of the core charge distribution:               1.922338
       Electronic configuration (s p d ...):                               2   4

       Parameters of the local part of the GTH pseudopotential:

                          rloc        C1          C2          C3          C4
                        0.510000

       Parameters of the non-local part of the GTH pseudopotential:

                   l      r(l)      h(i,j,l)

                   0    0.432531    5.145131   -0.794740   -0.334051
                                   -0.794740    2.052009    0.862517
                                   -0.334051    0.862517   -1.369203
                   1    0.472473    2.858806    0.249604
                                    0.249604   -0.590670
                   2    0.613420    0.434829


 MOLECULE KIND INFORMATION


 All atoms are their own molecule, skipping detailed information


 TOTAL NUMBERS AND MAXIMUM NUMBERS

  Total number of            - Atomic kinds:                                   2
                             - Atoms:                                        300
                             - Shell sets:                                   300
                             - Shells:                                      2500
                             - Primitive Cartesian functions:               1400
                             - Cartesian basis functions:                   7700
                             - Spherical basis functions:                   6900

  Maximum angular momentum of- Orbital basis functions:                        3
                             - Local part of the GTH pseudopotential:          2
                             - Non-local part of the GTH pseudopotential:      4


 MODULE QUICKSTEP: ATOMIC COORDINATES IN ANGSTROM

   Atom Kind Element         X             Y             Z       Z(eff)     Mass
      1    1 W    74      0.000000      0.000000      2.179276  14.0000 183.8400
      2    2 Se   34      1.659503      0.958115      3.858553   6.0000  78.9600
      3    2 Se   34      1.659503      0.958115      0.500000   6.0000  78.9600
      4    1 W    74      3.319000      0.000000      2.179276  14.0000 183.8400
      5    2 Se   34      4.978503      0.958115      3.858553   6.0000  78.9600
      6    2 Se   34      4.978503      0.958115      0.500000   6.0000  78.9600
      7    1 W    74      6.638000      0.000000      2.179276  14.0000 183.8400
      8    2 Se   34      8.297503      0.958115      3.858553   6.0000  78.9600
      9    2 Se   34      8.297503      0.958115      0.500000   6.0000  78.9600
     10    1 W    74      9.957000      0.000000      2.179276  14.0000 183.8400
     11    2 Se   34     11.616503      0.958115      3.858553   6.0000  78.9600
     12    2 Se   34     11.616503      0.958115      0.500000   6.0000  78.9600
     13    1 W    74     13.276000      0.000000      2.179276  14.0000 183.8400
     14    2 Se   34     14.935503      0.958115      3.858553   6.0000  78.9600
     15    2 Se   34     14.935503      0.958115      0.500000   6.0000  78.9600
     16    1 W    74     16.595000      0.000000      2.179276  14.0000 183.8400
     17    2 Se   34     18.254503      0.958115      3.858553   6.0000  78.9600
     18    2 Se   34     18.254503      0.958115      0.500000   6.0000  78.9600
     19    1 W    74     19.914000      0.000000      2.179276  14.0000 183.8400
     20    2 Se   34     21.573503      0.958115      3.858553   6.0000  78.9600
     21    2 Se   34     21.573503      0.958115      0.500000   6.0000  78.9600
     22    1 W    74     23.233000      0.000000      2.179276  14.0000 183.8400
     23    2 Se   34     24.892503      0.958115      3.858553   6.0000  78.9600
     24    2 Se   34     24.892503      0.958115      0.500000   6.0000  78.9600
     25    1 W    74     26.552000      0.000000      2.179276  14.0000 183.8400
     26    2 Se   34     28.211503      0.958115      3.858553   6.0000  78.9600
     27    2 Se   34     28.211503      0.958115      0.500000   6.0000  78.9600
     28    1 W    74     29.871000      0.000000      2.179276  14.0000 183.8400
     29    2 Se   34     31.530503      0.958115      3.858553   6.0000  78.9600
     30    2 Se   34     31.530503      0.958115      0.500000   6.0000  78.9600
     31    1 W    74     -1.659500      2.874338      2.179276  14.0000 183.8400
     32    2 Se   34      0.000003      3.832453      3.858553   6.0000  78.9600
     33    2 Se   34      0.000003      3.832453      0.500000   6.0000  78.9600
     34    1 W    74      1.659500      2.874338      2.179276  14.0000 183.8400
     35    2 Se   34      3.319003      3.832453      3.858553   6.0000  78.9600
     36    2 Se   34      3.319003      3.832453      0.500000   6.0000  78.9600
     37    1 W    74      4.978500      2.874338      2.179276  14.0000 183.8400
     38    2 Se   34      6.638003      3.832453      3.858553   6.0000  78.9600
     39    2 Se   34      6.638003      3.832453      0.500000   6.0000  78.9600
     40    1 W    74      8.297500      2.874338      2.179276  14.0000 183.8400
     41    2 Se   34      9.957003      3.832453      3.858553   6.0000  78.9600
     42    2 Se   34      9.957003      3.832453      0.500000   6.0000  78.9600
     43    1 W    74     11.616500      2.874338      2.179276  14.0000 183.8400
     44    2 Se   34     13.276003      3.832453      3.858553   6.0000  78.9600
     45    2 Se   34     13.276003      3.832453      0.500000   6.0000  78.9600
     46    1 W    74     14.935500      2.874338      2.179276  14.0000 183.8400
     47    2 Se   34     16.595003      3.832453      3.858553   6.0000  78.9600
     48    2 Se   34     16.595003      3.832453      0.500000   6.0000  78.9600
     49    1 W    74     18.254500      2.874338      2.179276  14.0000 183.8400
     50    2 Se   34     19.914003      3.832453      3.858553   6.0000  78.9600
     51    2 Se   34     19.914003      3.832453      0.500000   6.0000  78.9600
     52    1 W    74     21.573500      2.874338      2.179276  14.0000 183.8400
     53    2 Se   34     23.233003      3.832453      3.858553   6.0000  78.9600
     54    2 Se   34     23.233003      3.832453      0.500000   6.0000  78.9600
     55    1 W    74     24.892500      2.874338      2.179276  14.0000 183.8400
     56    2 Se   34     26.552003      3.832453      3.858553   6.0000  78.9600
     57    2 Se   34     26.552003      3.832453      0.500000   6.0000  78.9600
     58    1 W    74     28.211500      2.874338      2.179276  14.0000 183.8400
     59    2 Se   34     29.871003      3.832453      3.858553   6.0000  78.9600
     60    2 Se   34     29.871003      3.832453      0.500000   6.0000  78.9600
     61    1 W    74     -3.319000      5.748677      2.179276  14.0000 183.8400
     62    2 Se   34     -1.659497      6.706791      3.858553   6.0000  78.9600
     63    2 Se   34     -1.659497      6.706791      0.500000   6.0000  78.9600
     64    1 W    74      0.000000      5.748677      2.179276  14.0000 183.8400
     65    2 Se   34      1.659503      6.706791      3.858553   6.0000  78.9600
     66    2 Se   34      1.659503      6.706791      0.500000   6.0000  78.9600
     67    1 W    74      3.319000      5.748677      2.179276  14.0000 183.8400
     68    2 Se   34      4.978503      6.706791      3.858553   6.0000  78.9600
     69    2 Se   34      4.978503      6.706791      0.500000   6.0000  78.9600
     70    1 W    74      6.638000      5.748677      2.179276  14.0000 183.8400
     71    2 Se   34      8.297503      6.706791      3.858553   6.0000  78.9600
     72    2 Se   34      8.297503      6.706791      0.500000   6.0000  78.9600
     73    1 W    74      9.957000      5.748677      2.179276  14.0000 183.8400
     74    2 Se   34     11.616503      6.706791      3.858553   6.0000  78.9600
     75    2 Se   34     11.616503      6.706791      0.500000   6.0000  78.9600
     76    1 W    74     13.276000      5.748677      2.179276  14.0000 183.8400
     77    2 Se   34     14.935503      6.706791      3.858553   6.0000  78.9600
     78    2 Se   34     14.935503      6.706791      0.500000   6.0000  78.9600
     79    1 W    74     16.595000      5.748677      2.179276  14.0000 183.8400
     80    2 Se   34     18.254503      6.706791      3.858553   6.0000  78.9600
     81    2 Se   34     18.254503      6.706791      0.500000   6.0000  78.9600
     82    1 W    74     19.914000      5.748677      2.179276  14.0000 183.8400
     83    2 Se   34     21.573503      6.706791      3.858553   6.0000  78.9600
     84    2 Se   34     21.573503      6.706791      0.500000   6.0000  78.9600
     85    1 W    74     23.233000      5.748677      2.179276  14.0000 183.8400
     86    2 Se   34     24.892503      6.706791      3.858553   6.0000  78.9600
     87    2 Se   34     24.892503      6.706791      0.500000   6.0000  78.9600
     88    1 W    74     26.552000      5.748677      2.179276  14.0000 183.8400
     89    2 Se   34     28.211503      6.706791      3.858553   6.0000  78.9600
[...]
 flops total                        31.435063E+12       0.7%     99.3%      0.0%
 flops max/rank                     83.715765E+09       2.3%     97.7%      0.0%
 matmuls inhomo. stacks                    115200     100.0%      0.0%      0.0%
 matmuls total                          909495600       0.0%    100.0%      0.0%
 number of processed stacks              75642720       0.2%     99.8%      0.0%
 average stack size                                     1.0      12.0       0.0
 marketing flops                    11.588279E+12
 -------------------------------------------------------------------------------
 # multiplications                             95
 max memory usage/rank             938.680320E+06
 # max total images/rank                       19
 # max 3D layers                                1
 # MPI messages exchanged               106278400
 MPI messages size (bytes):
  total size                         3.394465E+12
  min size                           0.000000E+00
  max size                         186.200000E+03
  average size                      31.939371E+03
 MPI breakdown and total messages size (bytes):
             size <=      128            51966292                        0
       128 < size <=     8192              424840               1896811040
      8192 < size <=    32768            18387443             380862712640
     32768 < size <=   131072            30955950            2251400623520
    131072 < size <=  4194304             4543875             760295736000
   4194304 < size <= 16777216                   0                        0
  16777216 < size                               0                        0
 -------------------------------------------------------------------------------

 *** WARNING in dbcsr_mm.F:290 :: Using a non-square number of MPI ranks   ***
 *** might lead to poor performance. Used ranks: 1520 Suggested: 1521 3025 ***

 -------------------------------------------------------------------------------
 -                                                                             -
 -                      DBCSR MESSAGE PASSING PERFORMANCE                      -
 -                                                                             -
 -------------------------------------------------------------------------------
 ROUTINE             CALLS      AVE VOLUME [Bytes]
 MP_Bcast              519                     12.
 MP_Allreduce         1715                     19.
 MP_Alltoall        101607                6239488.
 MP_ISend           141162                  21391.
 MP_IRecv           141348                  21085.
 -------------------------------------------------------------------------------

 -------------------------------------------------------------------------------
 -                                                                             -
 -                                DBM STATISTICS                               -
 -                                                                             -
 -------------------------------------------------------------------------------
    M  x    N  x    K                                          COUNT     PERCENT
   ??  x   ??  x  ???                                   186068507917       8.35%
   ??  x   ??  x   ??                                    13739095391       0.62%
   ??  x    ?  x >999                                    18024475352       0.81%
   ??  x   ??  x >999                                     5034203722       0.23%
    ?  x >999  x    ?                                    73219252317       3.29%
    ?  x >999  x   ??                                    21446141464       0.96%
   ??  x    ?  x  ???                                    72275126814       3.25%
  ???  x   ??  x   ??                                   162444276200       7.29%
   ??  x  ???  x   ??                                    24793176552       1.11%
    ?  x    ?  x >999                                    63258120912       2.84%
    ?  x    ?  x  ???                                   247625603871      11.12%
   ??  x  ???  x    ?                                    84377526704       3.79%
    ?  x  ???  x   ??                                    92952601472       4.17%
    ?  x  ???  x    ?                                   316239915180      14.20%
   ??  x >999  x    ?                                    19537175612       0.88%
    ?  x    ?  x    ?                                   732109729201      32.87%
    ?  x   ??  x  ???                                    70683454545       3.17%
   ??  x >999  x   ??                                     5719813844       0.26%
    ?  x   ??  x >999                                    17718673483       0.80%
 -------------------------------------------------------------------------------

 -------------------------------------------------------------------------------
 -                                                                             -
 -                                GRID STATISTICS                              -
 -                                                                             -
 -------------------------------------------------------------------------------
 LP    KERNEL             BACKEND                              COUNT     PERCENT
 5     collocate general  REF                               30625200      24.27%
 5     integrate general  REF                               30625200      24.27%
 4     collocate general  REF                               19796400      15.69%
 4     integrate general  REF                               19796400      15.69%
 6     collocate general  REF                               11985000       9.50%
 6     integrate general  REF                               11985000       9.50%
 0     collocate general  REF                                 912000       0.72%
 0     integrate general  REF                                 456000       0.36%
 -------------------------------------------------------------------------------

 MEMORY| Estimated peak process memory [MiB]                               13455

 -------------------------------------------------------------------------------
 ----                             MULTIGRID INFO                            ----
 -------------------------------------------------------------------------------
 count for grid        1:       28954500          cutoff [a.u.]          250.00
 count for grid        2:       18341480          cutoff [a.u.]           83.33
 count for grid        3:        6485900          cutoff [a.u.]           27.78
 count for grid        4:        1884740          cutoff [a.u.]            9.26
 total gridlevel count  :       55666620

 -------------------------------------------------------------------------------
 -                                                                             -
 -                         MESSAGE PASSING PERFORMANCE                         -
 -                                                                             -
 -------------------------------------------------------------------------------

 ROUTINE             CALLS      AVE VOLUME [Bytes]
 MP_Group            10460
 MP_Bcast            10886                 692559.
 MP_Allreduce        19557                  13456.
 MP_Sync             16034
 MP_Alltoall          8410
 MP_SendRecv        428358                  21952.
 MP_ISendRecv       428358                  21952.
 MP_Wait            452618
 MP_comm_split        6148
 MP_ISend          1521980                 149763.
 MP_IRecv          1557858                 159843.
 -------------------------------------------------------------------------------


 -------------------------------------------------------------------------------
 -                                                                             -
 -                           R E F E R E N C E S                               -
 -                                                                             -
 -------------------------------------------------------------------------------
 
 CP2K version 2023.1 (Development Version), the CP2K developers group (2023).
 CP2K is freely available from https://www.cp2k.org/ .

 Kuehne,Thomas D.; Iannuzzi,Marcella; Del Ben,Mauro;
 Rybkin,Vladimir V.; Seewald,Patrick; Stein,Frederick; Laino,Teodoro;
 Khaliullin,Rustam Z.; Schuett,Ole; Schiffmann,Florian; Golze,Dorothea;
 Wilhelm,Jan; Chulkov,Sergey; Bani-Hashemian,Mohammad Hossein;
 Weber,Valery; Borstnik,Urban; Taillefumier,Mathieu;
 Jakobovits,Alice Shoshana; Lazzaro,Alfio; Pabst,Hans; Mueller,Tiziano;
 Schade,Robert; Guidon,Manuel; Andermatt,Samuel; Holmberg,Nico;
 Schenter,Gregory K.; Hehn,Anna; Bussy,Augustin; Belleflamme,Fabian;
 Tabacchi,Gloria; Gloess,Andreas; Lass,Michael; Bethune,Iain;
 Mundy,Christopher J.; Plessl,Christian; Watkins,Matt;
 VandeVondele,Joost; Krack,Matthias; Hutter,Juerg. 
 The Journal of Chemical Physics, 152 (19), (2020). 
 CP2K: An electronic structure and molecular dynamics software package -
 Quickstep: Efficient and accurate electronic structure calculations.
 https://doi.org/10.1063/5.0007045

 Wilhelm, J; Golze, D; Talirz, L; Hutter, J; Pignedoli, CA. 
 JOURNAL OF PHYSICAL CHEMISTRY LETTERS, 9, 306-312 (2018). 
 Toward GW calculations on thousands of atoms.
 https://doi.org/10.1021/acs.jpclett.7b02740

 Wilhelm, J; Hutter, J. PHYSICAL REVIEW B, 95, 235123 (2017). 
 Periodic GW calculations in the Gaussian and plane-waves scheme.
 https://doi.org/10.1103/PhysRevB.95.235123

 Wilhelm, J; Del Ben, M; Hutter, J. 
 JOURNAL OF CHEMICAL THEORY AND COMPUTATION, 12, 3623-3635 (2016). 
 GW in the Gaussian and plane waves scheme with application to linear acenes.
 https://doi.org/10.1021/acs.jctc.6b00380

 Wilhelm, J; Seewald, P; Del Ben, M; Hutter, J. 
 JOURNAL OF CHEMICAL THEORY AND COMPUTATION, 12, 5851-5859 (2016). 
 Large-Scale Cubic-Scaling Random Phase Approximation Correlation.
 https://doi.org/10.1021/acs.jctc.6b00840

 Schuett, Ole; Messmer, Peter; Hutter, Juerg; VandeVondele, Joost. 
 Electronic Structure Calculations on Graphics Processing Units, John
 Wiley & Sons, Ltd, 173-190 (2016). 
 GPU-Accelerated Sparse Matrix-Matrix Multiplication for
 Linear Scaling Density Functional Theory.
 https://doi.org/10.1002/9781118670712.ch8

 Heinecke, A; Henry, G; Hutchinson, M; Pabst, H. 
 Proceedings of Intl. Supercomputing Conference, 981-991 (2016). 
 LIBXSMM: Accelerating Small Matrix Multiplications
 by Runtime Code Generation.
 https://doi.org/10.1109/SC.2016.83

 Del Ben, M; Schuett, O; Wentz, T; Messmer, P; Hutter, J;
 VandeVondele, J. 
 COMPUTER PHYSICS COMMUNICATIONS, 187, 120-129 (2015). 
 Enabling simulation at the fifth rung of DFT: Large scale RPA
 calculations with excellent time to solution.
 https://doi.org/10.1016/j.cpc.2014.10.021

 Borstnik, U; VandeVondele, J; Weber, V; Hutter, J. 
 PARALLEL COMPUTING, 40 (5-6), 47-58 (2014). 
 Sparse matrix multiplication: The distributed block-compressed sparse
 row library.
 https://doi.org/10.1016/j.parco.2014.03.012

 Hutter, J; Iannuzzi, M; Schiffmann, F; VandeVondele, J. 
 WIREs Comput Mol Sci., 4 (1), 15-25 (2014). 
 CP2K: atomistic simulations of condensed matter systems.
 https://doi.org/10.1002/wcms.1159

 Marek, A; Blum, V; Johanni, R; Havu, V; Lang, B; Auckenthaler, T;
 Heinecke, A; Bungartz, H; Lederer, H. 
 Journal of Physics: Condensed Matter, 26 (21), (2014). 
 The ELPA library: scalable parallel eigenvalue solutions for
 electronic structure
 theory and computational science.
 https://doi.org/10.1088/0953-8984/26/21/213201

 Del Ben, M; Hutter, J; VandeVondele, J. 
 JOURNAL OF CHEMICAL THEORY AND COMPUTATION, 9 (6), 2654-2671 (2013). 
 Electron Correlation in the Condensed Phase from a Resolution of
 Identity Approach Based on the Gaussian and Plane Waves Scheme.
 https://doi.org/10.1021/ct4002202

 Del Ben, M; Hutter, J; VandeVondele, J. 
 JOURNAL OF CHEMICAL THEORY AND COMPUTATION, 8 (11), 4177-4188 (2012). 
 Second-Order Moller-Plesset Perturbation Theory in the Condensed Phase:
 An Efficient and Massively Parallel Gaussian and Plane Waves Approach.
 https://doi.org/10.1021/ct300531w

 VandeVondele, J; Hutter, J. 
 JOURNAL OF CHEMICAL PHYSICS, 127 (11), 114105 (2007). 
 Gaussian basis sets for accurate calculations on molecular systems in
 gas and condensed phases.
 https://doi.org/10.1063/1.2770708

 Krack, M. 
 THEORETICAL CHEMISTRY ACCOUNTS, 114 (1-3), 145-152 (2005). 
 Pseudopotentials for H to Kr optimized for gradient-corrected
 exchange-correlation functionals.
 https://doi.org/10.1007/s00214-005-0655-y

 VandeVondele, J; Krack, M; Mohamed, F; Parrinello, M; Chassaing, T;
 Hutter, J. COMPUTER PHYSICS COMMUNICATIONS, 167 (2), 103-128 (2005). 
 QUICKSTEP: Fast and accurate density functional calculations using a
 mixed Gaussian and plane waves approach.
 https://doi.org/10.1016/j.cpc.2004.12.014

 Frigo, M; Johnson, SG. 
 PROCEEDINGS OF THE IEEE, 93 (2), 216-231 (2005). 
 The design and implementation of FFTW3.
 https://doi.org/10.1109/JPROC.2004.840301

 Hartwigsen, C; Goedecker, S; Hutter, J. 
 PHYSICAL REVIEW B, 58 (7), 3641-3662 (1998). 
 Relativistic separable dual-space Gaussian pseudopotentials from H to Rn.
 https://doi.org/10.1103/PhysRevB.58.3641

 Lippert, G; Hutter, J; Parrinello, M. 
 MOLECULAR PHYSICS, 92 (3), 477-487 (1997). 
 A hybrid Gaussian and plane wave density functional scheme.
 https://doi.org/10.1080/002689797170220

 Goedecker, S; Teter, M; Hutter, J. 
 PHYSICAL REVIEW B, 54 (3), 1703-1710 (1996). 
 Separable dual-space Gaussian pseudopotentials.
 https://doi.org/10.1103/PhysRevB.54.1703


 -------------------------------------------------------------------------------
 -                                                                             -
 -                                T I M I N G                                  -
 -                                                                             -
 -------------------------------------------------------------------------------
 SUBROUTINE                       CALLS  ASD         SELF TIME        TOTAL TIME
                                MAXIMUM       AVERAGE  MAXIMUM  AVERAGE  MAXIMUM
 CP2K                                 1  1.0     0.02     0.14 20034.66 20034.76
 qs_energies                          1  2.0     0.00     0.19 20033.30 20033.51
 mp2_main                             1  3.0     0.00     0.04 19898.74 19898.83
 mp2_gpw_main                         1  4.0     0.00     0.01 19897.43 19897.53
 rpa_ri_compute_en                    1  5.0     0.00     0.02 17715.96 17716.05
 rpa_num_int                          1  6.0     0.01     0.25 17419.24 17419.32
 rpa_num_int_RPA_matrix_operati      10  7.0     0.00     0.00  9820.56  9820.61
 invert_eps_compute_W_and_Erpa_      10  8.0     0.00     0.00  9820.54  9820.59
 cp_cfm_power                       312  9.7     0.54     0.91  7518.70  7519.43
 compute_Q_kp_RPA                   260  9.0     0.34     0.91  7278.50  7279.09
 dbt_total                         3250  9.8     0.02     0.02  7073.31  7073.35
 cp_cfm_heevd                       441 10.2  6920.57  6923.94  6920.57  6923.94
 dbt_contract                      1360 11.0     0.08     0.09  6698.62  6700.52
 dbt_tas_total                     2112 13.4     9.98    14.60  6643.01  6643.05
 dbt_tas_multiply                  1891 12.8     0.01     0.01  6639.89  6639.93
 dbt_tas_dbm                       1891 14.8     0.01     0.01  5820.35  5820.38
 dbm_multiply                      1891 16.8  3733.56  5120.78  3733.56  5120.78
 compute_mat_P_omega                  1  7.0     0.00     0.00  4375.88  4375.92
 compute_mat_P_omega_contract        10  8.0     3.42     3.91  4365.47  4365.54
 parallel_gemm_cfm                 4194 10.2     0.01     0.01  4037.51  4145.15
 parallel_gemm_cfm_cosma           4194 11.2  4037.50  4145.14  4037.50  4145.14
 dbt_tas_mm_2                       513 15.0     0.00     0.00  4102.66  4102.68
 compute_mat_P_omega_calc_P_t       160  9.0     0.00     0.00  3474.98  3475.00
 compute_QP_energies                  1  7.0     0.00     0.01  3218.95  3218.98
 compute_self_energy_cubic_gw_k       1  8.0     0.09     0.10  3218.66  3218.69
 mp_sync                          16034 12.8  2227.69  3137.92  2227.69  3137.92
 mp2_ri_gpw_compute_in                1  5.0     0.00     0.09  2181.43  2181.44
 get_2c_integrals                     1  6.0     0.00     0.02  2147.71  2147.72
 compute_Wc_real_space_tau_GW       260  9.0     0.00     0.00  2103.55  2104.21
 inversion_of_M_and_mult_with_c       1  7.0     0.00     0.00  1621.23  1621.25
 compute_Wc_real_space_tau_GW_3     260 10.0     0.00     0.00  1456.57  1560.36
 tensor_operation_3c_W              176  9.0     0.00     0.00  1391.08  1391.43
 contract_to_self_energy            352  9.0     0.01     0.01  1331.64  1332.21
 dbt_tas_mm_3N                      352 16.5     0.00     0.00   955.20  1032.10
 compute_Wc_real_space_tau_GW_2     260 10.0     0.06     0.07   628.41   894.42
 mp_waitall_2                      9471 16.7   587.40   625.89   587.40   625.89
 copy_dbcsr_to_fm                  3926 10.4     0.06     0.07   387.33   586.76
 mp_alltoall_i22                  15627 12.6   339.85   553.43   339.85   553.43
 dbcsr_desymmetrize_deep           3986 11.3     0.48     1.38   343.44   543.22
 cp_cfm_cholesky_invert             260 11.0   513.33   513.87   513.33   513.87
 compute_V_by_lattice_sum             1  7.0     0.00     0.03   512.71   512.73
 build_2c_coulomb_matrix_kp           2  8.0     0.00     0.02   198.22   509.52
 lattice_sum                          2  9.0     6.80    18.60   198.21   509.51
 compute_v_transl                 13312 10.0   189.82   488.20   191.26   491.88
 trafo_to_mo_and_kpoints             21  9.0     0.24     0.27   465.15   465.16
 compute_mat_P_omega_calc_M_occ     160  9.0     3.46     3.94   425.63   425.63
 own_cfm_upper_to_full              260 11.0     0.20     0.23   115.02   381.04
 cp_cfm_transpose                   260 12.0   114.70   380.70   114.70   380.70
 cp_cfm_cholesky_decompose          389  9.7   361.83   361.90   361.83   361.90
 cholesky_decomp_Q                  260  9.0     0.49     0.61   356.74   357.63
 dbt_tas_replicate                 1639 15.0    32.08    63.06   343.32   355.83
 dbt_tas_communicate_buffer        3454 17.2     0.67     0.94   326.83   343.53
 dbt_copy                          1647 10.9     0.08     0.10   328.08   336.88
 dbt_reshape                       1625 11.9    32.48    34.88   326.35   335.10
 dbt_tas_replicate_communicate_    1259 16.3     0.11     0.18   287.71   300.49
 mp_isend_dv                    1165542 16.4    21.29   298.73    21.29   298.73
 get_bandstruc_and_k_dependent_       1  6.0     0.00     0.00   296.70   296.71
 create_kp_and_calc_kp_orbitals       3  7.0     0.00     0.02   296.70   296.71
 dbt_communicate_buffer            1625 12.9     0.38     0.43   283.58   292.19
 cp_cfm_geeig                       129  8.0     0.00     0.00   276.74   277.03
 compute_mat_P_omega_calc_M_vir     160  9.0     0.00     0.00   225.14   225.14
 dbm_redistribute                  3180 15.7   200.84   219.21   200.84   219.21
 -------------------------------------------------------------------------------

 The number of warnings for this run is : 3
 
 -------------------------------------------------------------------------------
  **** **** ******  **  PROGRAM ENDED AT                 2023-06-02 08:10:05.804
 ***** ** ***  *** **   PROGRAM RAN ON                                  n2cn0170
 **    ****   ******    PROGRAM RAN BY                                  eprop2d1
 ***** **    ** ** **   PROGRAM PROCESS ID                                713000
  **** **  *******  **  PROGRAM STOPPED IN /scratch/hpc-prf-eprop2d/eprop2d1_Jan
                                           /02_MoS2_MoSe2_WS2_WSe2/4_WSe2/10x10/
                                           8_reg_RI_1e-2_TZVP_huge_RI
