 DBCSR| CPU Multiplication driver                                           XSMM (U)
 DBCSR| Multrec recursion limit                                              512 (U)
 DBCSR| Multiplication stack size                                           1000 (D)
 DBCSR| Maximum elements for images                                    UNLIMITED (U)
 DBCSR| Multiplicative factor virtual images                                   1 (U)
 DBCSR| Use multiplication densification                                       T (D)
 DBCSR| Multiplication size stacks                                             3 (U)
 DBCSR| Use memory pool for CPU allocation                                     F (U)
 DBCSR| Number of 3D layers                                               SINGLE (U)
 DBCSR| Use MPI memory allocation                                              F (U)
 DBCSR| Use RMA algorithm                                                      F (U)
 DBCSR| Use Communication thread                                               T (U)
 DBCSR| Communication thread load                                             75 (D)
 DBCSR| MPI: My process id                                                     0
 DBCSR| MPI: Number of processes                                            2880
 DBCSR| OMP: Current number of threads                                         4
 DBCSR| OMP: Max number of threads                                             4
 DBCSR| Split modifier for TAS multiplication algorithm                  1.0E+00 (U)


  **** **** ******  **  PROGRAM STARTED AT               2023-06-02 18:13:14.036
 ***** ** ***  *** **   PROGRAM STARTED ON                              n2cn0201
 **    ****   ******    PROGRAM STARTED BY                              eprop2d1
 ***** **    ** ** **   PROGRAM PROCESS ID                               2287005
  **** **  *******  **  PROGRAM STARTED IN /scratch/hpc-prf-eprop2d/eprop2d1_Jan
                                           /02_MoS2_MoSe2_WS2_WSe2/3_WS2/10x10_w
                                           ith_PBE/16_reg_RI_1e-2_TZVP_biggest_R
                                           I

 CP2K| version string:                 CP2K version 2023.1 (Development Version)
 CP2K| source code revision number:                                  git:a5f008f
 CP2K| cp2kflags: omp libint fftw3 libxc elpa parallel scalapack cosma xsmm plum
 CP2K|            ed2 spglib sirius libvori libbqb libvdwxc
 CP2K| is freely available from                            https://www.cp2k.org/
 CP2K| Program compiled at                         Tue Apr 11 10:47:55 CEST 2023
 CP2K| Program compiled on                                              n2login5
 CP2K| Program compiled for                                                local
 CP2K| Data directory path    /opt/software/pc2/EB-SW/software/CP2K/2023.1-foss-
 CP2K| Input file name                                                    GW.inp

 GLOBAL| Force Environment number                                              1
 GLOBAL| Basis set file name                                        BASIS_MOLOPT
 GLOBAL| Potential file name                                      GTH_POTENTIALS
 GLOBAL| MM Potential file name                                     MM_POTENTIAL
 GLOBAL| Coordinate file name                                      __STD_INPUT__
 GLOBAL| Method name                                                        CP2K
 GLOBAL| Project name                                                       MoS2
 GLOBAL| Run type                                                         ENERGY
 GLOBAL| FFT library                                                       FFTW3
 GLOBAL| Diagonalization library                                            ELPA
 GLOBAL| DGEMM library                                                      BLAS
 GLOBAL| Minimum number of eigenvectors for ELPA usage                        16
 GLOBAL| Orthonormality check for eigenvectors                          DISABLED
 GLOBAL| Matrix multiplication library                                     COSMA
 GLOBAL| All-to-all communication in single precision                          F
 GLOBAL| FFTs using library dependent lengths                                  F
 GLOBAL| Grid backend                                                       AUTO
 GLOBAL| Global print level                                               MEDIUM
 GLOBAL| MPI I/O enabled                                                       T
 GLOBAL| Total number of message passing processes                          2880
 GLOBAL| Number of threads for this process                                    4
 GLOBAL| This output is from process                                           0
 GLOBAL| Stack size for threads created by OpenMP (OMP_STACKSIZE)        default
 GLOBAL| CPU model name                          AMD EPYC 7763 64-Core Processor
 GLOBAL| CPUID                                                              1002
 GLOBAL| Compiled for CPUID                                                    0

 *** HINT in environment.F:882 :: The compiler target flags (generic) used ***
 *** to build this binary cannot exploit all extensions of this CPU model  ***
 *** (x86_avx2). Consider compiler target flags as part of FCFLAGS and     ***
 *** CFLAGS (ARCH file).                                                   ***


 MEMORY| system memory details [Kb]
 MEMORY|                        rank 0           min           max       average
 MEMORY| MemTotal            263914148     263914144     263914156     263914149
 MEMORY| MemFree             243665716     229595404     252419432     244187344
 MEMORY| Buffers                158628         27496        358676        218420
 MEMORY| Cached                5492612       3714212      16429808       6318579
 MEMORY| Slab                  7286136       1332892      11992512       6059512
 MEMORY| SReclaimable           246248        202672        512712        282103
 MEMORY| MemLikelyFree       249563204     244597280     256470704     251006447


 *** Fundamental physical constants (SI units) ***

 *** Literature: B. J. Mohr and B. N. Taylor,
 ***             CODATA recommended values of the fundamental physical
 ***             constants: 2006, Web Version 5.1
 ***             http://physics.nist.gov/constants

 Speed of light in vacuum [m/s]                             2.99792458000000E+08
 Magnetic constant or permeability of vacuum [N/A**2]       1.25663706143592E-06
 Electric constant or permittivity of vacuum [F/m]          8.85418781762039E-12
 Planck constant (h) [J*s]                                  6.62606896000000E-34
 Planck constant (h-bar) [J*s]                              1.05457162825177E-34
 Elementary charge [C]                                      1.60217648700000E-19
 Electron mass [kg]                                         9.10938215000000E-31
 Electron g factor [ ]                                     -2.00231930436220E+00
 Proton mass [kg]                                           1.67262163700000E-27
 Fine-structure constant                                    7.29735253760000E-03
 Rydberg constant [1/m]                                     1.09737315685270E+07
 Avogadro constant [1/mol]                                  6.02214179000000E+23
 Boltzmann constant [J/K]                                   1.38065040000000E-23
 Atomic mass unit [kg]                                      1.66053878200000E-27
 Bohr radius [m]                                            5.29177208590000E-11

 *** Conversion factors ***

 [u] -> [a.u.]                                              1.82288848426455E+03
 [Angstrom] -> [Bohr] = [a.u.]                              1.88972613288564E+00
 [a.u.] = [Bohr] -> [Angstrom]                              5.29177208590000E-01
 [a.u.] -> [s]                                              2.41888432650478E-17
 [a.u.] -> [fs]                                             2.41888432650478E-02
 [a.u.] -> [J]                                              4.35974393937059E-18
 [a.u.] -> [N]                                              8.23872205491840E-08
 [a.u.] -> [K]                                              3.15774647902944E+05
 [a.u.] -> [kJ/mol]                                         2.62549961709828E+03
 [a.u.] -> [kcal/mol]                                       6.27509468713739E+02
 [a.u.] -> [Pa]                                             2.94210107994716E+13
 [a.u.] -> [bar]                                            2.94210107994716E+08
 [a.u.] -> [atm]                                            2.90362800883016E+08
 [a.u.] -> [eV]                                             2.72113838565563E+01
 [a.u.] -> [Hz]                                             6.57968392072181E+15
 [a.u.] -> [1/cm] (wave numbers)                            2.19474631370540E+05
 [a.u./Bohr**2] -> [1/cm]                                   5.14048714338585E+03
 

 CELL_TOP| Volume [angstrom^3]:                                     13185.261000
 CELL_TOP| Vector a [angstrom    31.860     0.000     0.000   |a| =    31.860000
 CELL_TOP| Vector b [angstrom   -15.930    27.590     0.000   |b| =    31.858641
 CELL_TOP| Vector c [angstrom     0.000     0.000    15.000   |c| =    15.000000
 CELL_TOP| Angle (b,c), alpha [degree]:                                90.000000
 CELL_TOP| Angle (a,c), beta  [degree]:                                90.000000
 CELL_TOP| Angle (a,b), gamma [degree]:                               120.001411
 CELL_TOP| Numerically orthorhombic:                                          NO
 CELL_TOP| Periodicity                                                        XY

 CELL_UC| Volume [angstrom^3]:                                        131.852610
 CELL_UC| Vector a [angstrom]     3.186     0.000     0.000   |a| =     3.186000
 CELL_UC| Vector b [angstrom]    -1.593     2.759     0.000   |b| =     3.185864
 CELL_UC| Vector c [angstrom]     0.000     0.000    15.000   |c| =    15.000000
 CELL_UC| Angle (b,c), alpha [degree]:                                 90.000000
 CELL_UC| Angle (a,c), beta  [degree]:                                 90.000000
 CELL_UC| Angle (a,b), gamma [degree]:                                120.001411
 CELL_UC| Numerically orthorhombic:                                           NO
 CELL_UC| Periodicity                                                         XY

 GENERATE|  Preliminary Number of Bonds generated:                             0
 GENERATE|  Achieved consistency in connectivity generation.

 CELL| Volume [angstrom^3]:                                         13185.261000
 CELL| Vector a [angstrom]:      31.860     0.000     0.000   |a| =    31.860000
 CELL| Vector b [angstrom]:     -15.930    27.590     0.000   |b| =    31.858641
 CELL| Vector c [angstrom]:       0.000     0.000    15.000   |c| =    15.000000
 CELL| Angle (b,c), alpha [degree]:                                    90.000000
 CELL| Angle (a,c), beta  [degree]:                                    90.000000
 CELL| Angle (a,b), gamma [degree]:                                   120.001411
 CELL| Numerically orthorhombic:                                              NO
 CELL| Periodicity                                                            XY

 CELL_REF| Volume [angstrom^3]:                                     13185.261000
 CELL_REF| Vector a [angstrom    31.860     0.000     0.000   |a| =    31.860000
 CELL_REF| Vector b [angstrom   -15.930    27.590     0.000   |b| =    31.858641
 CELL_REF| Vector c [angstrom     0.000     0.000    15.000   |c| =    15.000000
 CELL_REF| Angle (b,c), alpha [degree]:                                90.000000
 CELL_REF| Angle (a,c), beta  [degree]:                                90.000000
 CELL_REF| Angle (a,b), gamma [degree]:                               120.001411
 CELL_REF| Numerically orthorhombic:                                          NO
 CELL_REF| Periodicity                                                        XY

 *******************************************************************************
 *******************************************************************************
 **                                                                           **
 **     #####                         ##              ##                      **
 **    ##   ##            ##          ##              ##                      **
 **   ##     ##                       ##            ######                    **
 **   ##     ##  ##   ##  ##   #####  ##  ##   ####   ##    #####    #####    **
 **   ##     ##  ##   ##  ##  ##      ## ##   ##      ##   ##   ##  ##   ##   **
 **   ##  ## ##  ##   ##  ##  ##      ####     ###    ##   ######   ######    **
 **    ##  ###   ##   ##  ##  ##      ## ##      ##   ##   ##       ##        **
 **     #######   #####   ##   #####  ##  ##  ####    ##    #####   ##        **
 **           ##                                                    ##        **
 **                                                                           **
 **                                                ... make the atoms dance   **
 **                                                                           **
 **            Copyright (C) by CP2K developers group (2000-2023)             **
 **                      J. Chem. Phys. 152, 194103 (2020)                    **
 **                                                                           **
 *******************************************************************************

 DFT| Spin restricted Kohn-Sham (RKS) calculation                            RKS
 DFT| Multiplicity                                                             1
 DFT| Number of spin states                                                    1
 DFT| Charge                                                                   0
 DFT| Self-interaction correction (SIC)                                       NO
 DFT| Cutoffs: density                                              1.000000E-10
 DFT|          gradient                                             1.000000E-10
 DFT|          tau                                                  1.000000E-10
 DFT|          cutoff_smoothing_range                               0.000000E+00
 DFT| XC density smoothing                                                  NONE
 DFT| XC derivatives                                                          PW

 FUNCTIONAL| PADE:
 FUNCTIONAL| S. Goedecker, M. Teter and J. Hutter, Phys. Rev. B 54, 1703 (1996) 


 QS| Method:                                                                 GPW
 QS| Density plane wave grid type                        NON-SPHERICAL FULLSPACE
 QS| Number of grid levels:                                                    4
 QS| Density cutoff [a.u.]:                                                250.0
 QS| Multi grid cutoff [a.u.]: 1) grid level                               250.0
 QS|                           2) grid level                                83.3
 QS|                           3) grid level                                27.8
 QS|                           4) grid level                                 9.3
 QS| Grid level progression factor:                                          3.0
 QS| Relative density cutoff [a.u.]:                                        50.0
 QS| Interaction thresholds: eps_pgf_orb:                                1.0E-40
 QS|                         eps_filter_matrix:                          0.0E+00
 QS|                         eps_core_charge:                            1.0E-42
 QS|                         eps_rho_gspace:                             1.0E-40
 QS|                         eps_rho_rspace:                             1.0E-40
 QS|                         eps_gvg_rspace:                             1.0E-20
 QS|                         eps_ppl:                                    1.0E-02
 QS|                         eps_ppnl:                                   1.0E-22


 ATOMIC KIND INFORMATION

  1. Atomic kind: W                                     Number of atoms:     100

     Orbital Basis Set                                        TZVP-MOLOPT-SR-GTH

       Number of orbital shell sets:                                           1
       Number of orbital shells:                                              11
       Number of primitive Cartesian functions:                                6
       Number of Cartesian basis functions:                                   41
       Number of spherical basis functions:                                   35
       Norm type:                                                              2

       Normalised Cartesian orbitals:

                        Set   Shell   Orbital            Exponent    Coefficient

                          1       1    2s                3.103254       0.430480
                                                         2.893835       0.495799
                                                         1.106151      -0.749253
                                                         0.501100      -0.216095
                                                         0.214447       0.032697
                                                         0.074663      -0.009674

                          1       2    3s                3.103254      -0.838448
                                                         2.893835       0.659302
                                                         1.106151       0.041187
                                                         0.501100      -0.061336
                                                         0.214447       0.079342
                                                         0.074663       0.078749

                          1       3    4s                3.103254       1.710384
                                                         2.893835      -1.029561
                                                         1.106151      -0.302972
                                                         0.501100       0.071480
                                                         0.214447      -0.305493
                                                         0.074663       0.172896

                          1       4    5s                3.103254       1.231280
                                                         2.893835      -1.395772
                                                         1.106151       0.316405
                                                         0.501100      -0.291407
                                                         0.214447       0.253777
                                                         0.074663       0.028869

                          1       5    3px               3.103254       6.595006
                                                         2.893835      -5.436829
                                                         1.106151      -0.973670
                                                         0.501100      -0.261913
                                                         0.214447      -0.013952
                                                         0.074663       0.001100
                          1       5    3py               3.103254       6.595006
                                                         2.893835      -5.436829
                                                         1.106151      -0.973670
                                                         0.501100      -0.261913
                                                         0.214447      -0.013952
                                                         0.074663       0.001100
                          1       5    3pz               3.103254       6.595006
                                                         2.893835      -5.436829
                                                         1.106151      -0.973670
                                                         0.501100      -0.261913
                                                         0.214447      -0.013952
                                                         0.074663       0.001100

                          1       6    4px               3.103254      -0.229699
                                                         2.893835       0.340023
                                                         1.106151      -0.266568
                                                         0.501100      -0.017427
                                                         0.214447       0.062174
                                                         0.074663       0.044896
                          1       6    4py               3.103254      -0.229699
                                                         2.893835       0.340023
                                                         1.106151      -0.266568
                                                         0.501100      -0.017427
                                                         0.214447       0.062174
                                                         0.074663       0.044896
                          1       6    4pz               3.103254      -0.229699
                                                         2.893835       0.340023
                                                         1.106151      -0.266568
                                                         0.501100      -0.017427
                                                         0.214447       0.062174
                                                         0.074663       0.044896

                          1       7    5px               3.103254       1.468072
                                                         2.893835      -1.128056
                                                         1.106151       1.371755
                                                         0.501100       0.145890
                                                         0.214447      -0.334609
                                                         0.074663       0.044858
                          1       7    5py               3.103254       1.468072
                                                         2.893835      -1.128056
                                                         1.106151       1.371755
                                                         0.501100       0.145890
                                                         0.214447      -0.334609
                                                         0.074663       0.044858
                          1       7    5pz               3.103254       1.468072
                                                         2.893835      -1.128056
                                                         1.106151       1.371755
                                                         0.501100       0.145890
                                                         0.214447      -0.334609
                                                         0.074663       0.044858

                          1       8    4dx2              3.103254      -0.073430
                                                         2.893835       0.214195
                                                         1.106151       0.645387
                                                         0.501100       0.199794
                                                         0.214447       0.032379
                                                         0.074663       0.003876
                          1       8    4dxy              3.103254      -0.127184
                                                         2.893835       0.370997
                                                         1.106151       1.117844
                                                         0.501100       0.346053
                                                         0.214447       0.056082
                                                         0.074663       0.006714
                          1       8    4dxz              3.103254      -0.127184
                                                         2.893835       0.370997
                                                         1.106151       1.117844
                                                         0.501100       0.346053
                                                         0.214447       0.056082
                                                         0.074663       0.006714
                          1       8    4dy2              3.103254      -0.073430
                                                         2.893835       0.214195
                                                         1.106151       0.645387
                                                         0.501100       0.199794
                                                         0.214447       0.032379
                                                         0.074663       0.003876
                          1       8    4dyz              3.103254      -0.127184
                                                         2.893835       0.370997
                                                         1.106151       1.117844
                                                         0.501100       0.346053
                                                         0.214447       0.056082
                                                         0.074663       0.006714
                          1       8    4dz2              3.103254      -0.073430
                                                         2.893835       0.214195
                                                         1.106151       0.645387
                                                         0.501100       0.199794
                                                         0.214447       0.032379
                                                         0.074663       0.003876

                          1       9    5dx2              3.103254       0.131236
                                                         2.893835      -0.269688
                                                         1.106151      -0.639375
                                                         0.501100      -0.218460
                                                         0.214447       0.054987
                                                         0.074663       0.011491
                          1       9    5dxy              3.103254       0.227308
                                                         2.893835      -0.467113
                                                         1.106151      -1.107431
                                                         0.501100      -0.378383
                                                         0.214447       0.095240
                                                         0.074663       0.019903
                          1       9    5dxz              3.103254       0.227308
                                                         2.893835      -0.467113
                                                         1.106151      -1.107431
                                                         0.501100      -0.378383
                                                         0.214447       0.095240
                                                         0.074663       0.019903
                          1       9    5dy2              3.103254       0.131236
                                                         2.893835      -0.269688
                                                         1.106151      -0.639375
                                                         0.501100      -0.218460
                                                         0.214447       0.054987
                                                         0.074663       0.011491
                          1       9    5dyz              3.103254       0.227308
                                                         2.893835      -0.467113
                                                         1.106151      -1.107431
                                                         0.501100      -0.378383
                                                         0.214447       0.095240
                                                         0.074663       0.019903
                          1       9    5dz2              3.103254       0.131236
                                                         2.893835      -0.269688
                                                         1.106151      -0.639375
                                                         0.501100      -0.218460
                                                         0.214447       0.054987
                                                         0.074663       0.011491

                          1      10    6dx2              3.103254      11.532441
                                                         2.893835     -11.449410
                                                         1.106151       0.939358
                                                         0.501100      -0.005417
                                                         0.214447      -0.145639
                                                         0.074663       0.020374
                          1      10    6dxy              3.103254      19.974774
                                                         2.893835     -19.830960
                                                         1.106151       1.627016
                                                         0.501100      -0.009382
                                                         0.214447      -0.252255
                                                         0.074663       0.035289
                          1      10    6dxz              3.103254      19.974774
                                                         2.893835     -19.830960
                                                         1.106151       1.627016
                                                         0.501100      -0.009382
                                                         0.214447      -0.252255
                                                         0.074663       0.035289
                          1      10    6dy2              3.103254      11.532441
                                                         2.893835     -11.449410
                                                         1.106151       0.939358
                                                         0.501100      -0.005417
                                                         0.214447      -0.145639
                                                         0.074663       0.020374
                          1      10    6dyz              3.103254      19.974774
                                                         2.893835     -19.830960
                                                         1.106151       1.627016
                                                         0.501100      -0.009382
                                                         0.214447      -0.252255
                                                         0.074663       0.035289
                          1      10    6dz2              3.103254      11.532441
                                                         2.893835     -11.449410
                                                         1.106151       0.939358
                                                         0.501100      -0.005417
                                                         0.214447      -0.145639
                                                         0.074663       0.020374

                          1      11    5fx3              3.103254      -2.194270
                                                         2.893835       2.425274
                                                         1.106151      -0.369945
                                                         0.501100      -0.176940
                                                         0.214447      -0.017061
                                                         0.074663      -0.000241
                          1      11    5fx2y             3.103254      -4.906538
                                                         2.893835       5.423078
                                                         1.106151      -0.827223
                                                         0.501100      -0.395650
                                                         0.214447      -0.038149
                                                         0.074663      -0.000540
                          1      11    5fx2z             3.103254      -4.906538
                                                         2.893835       5.423078
                                                         1.106151      -0.827223
                                                         0.501100      -0.395650
                                                         0.214447      -0.038149
                                                         0.074663      -0.000540
                          1      11    5fxy2             3.103254      -4.906538
                                                         2.893835       5.423078
                                                         1.106151      -0.827223
                                                         0.501100      -0.395650
                                                         0.214447      -0.038149
                                                         0.074663      -0.000540
                          1      11    5fxyz             3.103254      -8.498372
                                                         2.893835       9.393047
                                                         1.106151      -1.432792
                                                         0.501100      -0.685285
                                                         0.214447      -0.066076
                                                         0.074663      -0.000935
                          1      11    5fxz2             3.103254      -4.906538
                                                         2.893835       5.423078
                                                         1.106151      -0.827223
                                                         0.501100      -0.395650
                                                         0.214447      -0.038149
                                                         0.074663      -0.000540
                          1      11    5fy3              3.103254      -2.194270
                                                         2.893835       2.425274
                                                         1.106151      -0.369945
                                                         0.501100      -0.176940
                                                         0.214447      -0.017061
                                                         0.074663      -0.000241
                          1      11    5fy2z             3.103254      -4.906538
                                                         2.893835       5.423078
                                                         1.106151      -0.827223
                                                         0.501100      -0.395650
                                                         0.214447      -0.038149
                                                         0.074663      -0.000540
                          1      11    5fyz2             3.103254      -4.906538
                                                         2.893835       5.423078
                                                         1.106151      -0.827223
                                                         0.501100      -0.395650
                                                         0.214447      -0.038149
                                                         0.074663      -0.000540
                          1      11    5fz3              3.103254      -2.194270
                                                         2.893835       2.425274
                                                         1.106151      -0.369945
                                                         0.501100      -0.176940
                                                         0.214447      -0.017061
                                                         0.074663      -0.000241

     RI Auxiliary Basis Set                                   def2-SVP-RIFIT-mod

       Number of orbital shell sets:                                          28
       Number of orbital shells:                                              28
       Number of primitive Cartesian functions:                               28
       Number of Cartesian basis functions:                                  177
       Number of spherical basis functions:                                  128
       Norm type:                                                              2

       Normalised Cartesian orbitals:

                        Set   Shell   Orbital            Exponent    Coefficient

                          1       1    1s                0.208675       0.220046

                          2       1    1fx3              0.253216       0.066959
                          2       1    1fx2y             0.253216       0.149725
                          2       1    1fx2z             0.253216       0.149725
                          2       1    1fxy2             0.253216       0.149725
                          2       1    1fxyz             0.253216       0.259331
                          2       1    1fxz2             0.253216       0.149725
                          2       1    1fy3              0.253216       0.066959
                          2       1    1fy2z             0.253216       0.149725
                          2       1    1fyz2             0.253216       0.149725
                          2       1    1fz3              0.253216       0.066959

                          3       1    1gx4              0.265033       0.028874
                          3       1    1gx3y             0.265033       0.076394
                          3       1    1gx3z             0.265033       0.076394
                          3       1    1gx2y2            0.265033       0.098624
                          3       1    1gx2yz            0.265033       0.170822
                          3       1    1gx2z2            0.265033       0.098624
                          3       1    1gxy3             0.265033       0.076394
                          3       1    1gxy2z            0.265033       0.170822
                          3       1    1gxyz2            0.265033       0.170822
                          3       1    1gxz3             0.265033       0.076394
                          3       1    1gy4              0.265033       0.028874
                          3       1    1gy3z             0.265033       0.076394
                          3       1    1gy2z2            0.265033       0.098624
                          3       1    1gyz3             0.265033       0.076394
                          3       1    1gz4              0.265033       0.028874

                          4       1    1px               0.269126       0.276302
                          4       1    1py               0.269126       0.276302
                          4       1    1pz               0.269126       0.276302

                          5       1    1dx2              0.304026       0.204882
                          5       1    1dxy              0.304026       0.354866
                          5       1    1dxz              0.304026       0.354866
                          5       1    1dy2              0.304026       0.204882
                          5       1    1dyz              0.304026       0.354866
                          5       1    1dz2              0.304026       0.204882

                          6       1    1s                0.364638       0.334431

                          7       1    1fx3              0.470422       0.269806
                          7       1    1fx2y             0.470422       0.603305
                          7       1    1fx2z             0.470422       0.603305
                          7       1    1fxy2             0.470422       0.603305
                          7       1    1fxyz             0.470422       1.044954
                          7       1    1fxz2             0.470422       0.603305
                          7       1    1fy3              0.470422       0.269806
                          7       1    1fy2z             0.470422       0.603305
                          7       1    1fyz2             0.470422       0.603305
                          7       1    1fz3              0.470422       0.269806

                          8       1    1s                0.648984       0.515330

                          9       1    1dx2              0.719090       0.924230
                          9       1    1dxy              0.719090       1.600814
                          9       1    1dxz              0.719090       1.600814
                          9       1    1dy2              0.719090       0.924230
                          9       1    1dyz              0.719090       1.600814
                          9       1    1dz2              0.719090       0.924230

                         10       1    1hx5              0.872710       0.476619
                         10       1    1hx4y             0.872710       1.429858
                         10       1    1hx4z             0.872710       1.429858
                         10       1    1hx3y2            0.872710       2.184143
                         10       1    1hx3yz            0.872710       3.783047
                         10       1    1hx3z2            0.872710       2.184143
                         10       1    1hx2y3            0.872710       2.184143
                         10       1    1hx2y2z           0.872710       4.883893
                         10       1    1hx2yz2           0.872710       4.883893
                         10       1    1hx2z3            0.872710       2.184143
                         10       1    1hxy4             0.872710       1.429858
                         10       1    1hxy3z            0.872710       3.783047
                         10       1    1hxy2z2           0.872710       4.883893
                         10       1    1hxyz3            0.872710       3.783047
                         10       1    1hxz4             0.872710       1.429858
                         10       1    1hy5              0.872710       0.476619
                         10       1    1hy4z             0.872710       1.429858
                         10       1    1hy3z2            0.872710       2.184143
                         10       1    1hy2z3            0.872710       2.184143
                         10       1    1hyz4             0.872710       1.429858
                         10       1    1hz5              0.872710       0.476619

                         11       1    1gx4              0.914481       0.870294
                         11       1    1gx3y             0.914481       2.302581
                         11       1    1gx3z             0.914481       2.302581
                         11       1    1gx2y2            0.914481       2.972619
                         11       1    1gx2yz            0.914481       5.148727
                         11       1    1gx2z2            0.914481       2.972619
                         11       1    1gxy3             0.914481       2.302581
                         11       1    1gxy2z            0.914481       5.148727
                         11       1    1gxyz2            0.914481       5.148727
                         11       1    1gxz3             0.914481       2.302581
                         11       1    1gy4              0.914481       0.870294
                         11       1    1gy3z             0.914481       2.302581
                         11       1    1gy2z2            0.914481       2.972619
                         11       1    1gyz3             0.914481       2.302581
                         11       1    1gz4              0.914481       0.870294

                         12       1    1px               0.967490       1.367723
                         12       1    1py               0.967490       1.367723
                         12       1    1pz               0.967490       1.367723

                         13       1    1dx2              1.179750       2.198072
                         13       1    1dxy              1.179750       3.807173
                         13       1    1dxz              1.179750       3.807173
                         13       1    1dy2              1.179750       2.198072
                         13       1    1dyz              1.179750       3.807173
                         13       1    1dz2              1.179750       2.198072

                         14       1    1fx3              1.281070       2.570357
                         14       1    1fx2y             1.281070       5.747492
                         14       1    1fx2z             1.281070       5.747492
                         14       1    1fxy2             1.281070       5.747492
                         14       1    1fxyz             1.281070       9.954948
                         14       1    1fxz2             1.281070       5.747492
                         14       1    1fy3              1.281070       2.570357
                         14       1    1fy2z             1.281070       5.747492
                         14       1    1fyz2             1.281070       5.747492
                         14       1    1fz3              1.281070       2.570357

                         15       1    1s                1.466370       0.949714

                         16       1    1gx4              1.748350       5.172059
                         16       1    1gx3y             1.748350      13.683982
                         16       1    1gx3z             1.748350      13.683982
                         16       1    1gx2y2            1.748350      17.665944
                         16       1    1gx2yz            1.748350      30.598313
                         16       1    1gx2z2            1.748350      17.665944
                         16       1    1gxy3             1.748350      13.683982
                         16       1    1gxy2z            1.748350      30.598313
                         16       1    1gxyz2            1.748350      30.598313
                         16       1    1gxz3             1.748350      13.683982
                         16       1    1gy4              1.748350       5.172059
                         16       1    1gy3z             1.748350      13.683982
                         16       1    1gy2z2            1.748350      17.665944
                         16       1    1gyz3             1.748350      13.683982
                         16       1    1gz4              1.748350       5.172059

                         17       1    1px               1.939290       3.262072
                         17       1    1py               1.939290       3.262072
                         17       1    1pz               1.939290       3.262072

                         18       1    1s                2.101910       1.244144

                         19       1    1dx2              2.484170       8.090526
                         19       1    1dxy              2.484170      14.013202
                         19       1    1dxz              2.484170      14.013202
                         19       1    1dy2              2.484170       8.090526
                         19       1    1dyz              2.484170      14.013202
                         19       1    1dz2              2.484170       8.090526

                         20       1    1fx3              2.625400      12.916483
                         20       1    1fx2y             2.625400      28.882134
                         20       1    1fx2z             2.625400      28.882134
                         20       1    1fxy2             2.625400      28.882134
                         20       1    1fxyz             2.625400      50.025324
                         20       1    1fxz2             2.625400      28.882134
                         20       1    1fy3              2.625400      12.916483
                         20       1    1fy2z             2.625400      28.882134
                         20       1    1fyz2             2.625400      28.882134
                         20       1    1fz3              2.625400      12.916483

                         21       1    1px               2.934310       5.474224
                         21       1    1py               2.934310       5.474224
                         21       1    1pz               2.934310       5.474224

                         22       1    1s                3.287500       1.740041

                         23       1    1px               4.122050       8.372047
                         23       1    1py               4.122050       8.372047
                         23       1    1pz               4.122050       8.372047

                         24       1    1dx2              4.561580      23.434799
                         24       1    1dxy              4.561580      40.590262
                         24       1    1dxz              4.561580      40.590262
                         24       1    1dy2              4.561580      23.434799
                         24       1    1dyz              4.561580      40.590262
                         24       1    1dz2              4.561580      23.434799

                         25       1    1fx3              5.428920      66.230753
                         25       1    1fx2y             5.428920     148.096466
                         25       1    1fx2z             5.428920     148.096466
                         25       1    1fxy2             5.428920     148.096466
                         25       1    1fxyz             5.428920     256.510604
                         25       1    1fxz2             5.428920     148.096466
                         25       1    1fy3              5.428920      66.230753
                         25       1    1fy2z             5.428920     148.096466
                         25       1    1fyz2             5.428920     148.096466
                         25       1    1fz3              5.428920      66.230753

                         26       1    1s                5.457930       2.544961

                         27       1    1dx2              7.997160      62.596072
                         27       1    1dxy              7.997160     108.419577
                         27       1    1dxz              7.997160     108.419577
                         27       1    1dy2              7.997160      62.596072
                         27       1    1dyz              7.997160     108.419577
                         27       1    1dz2              7.997160      62.596072

                         28       1    1px               9.577750      24.017039
                         28       1    1py               9.577750      24.017039
                         28       1    1pz               9.577750      24.017039

       Atomic covalent radius [Angstrom]:                                  1.300

       Atomic van der Waals radius [Angstrom]:                             1.670

     GTH Potential information for                                  GTH-PADE-q14

       Description:                       Goedecker-Teter-Hutter pseudopotential
                                           Goedecker et al., PRB 54, 1703 (1996)
                                          Hartwigsen et al., PRB 58, 3641 (1998)
                                                      Krack, TCA 114, 145 (2005)

       Gaussian exponent of the core charge distribution:               1.714678
       Electronic configuration (s p d ...):                           4   6   4

       Parameters of the local part of the GTH pseudopotential:

                          rloc        C1          C2          C3          C4
                        0.540000    4.800251    0.901544

       Parameters of the non-local part of the GTH pseudopotential:

                   l      r(l)      h(i,j,l)

                   0    0.418570    2.692204    2.332557    0.297239
                                    2.332557   -6.022638   -0.767467
                                    0.297239   -0.767467    1.218316
                   1    0.449555   -0.702084    1.036024
                                    1.036024   -2.451680
                   2    0.399602    1.177436    2.448917
                                    2.448917   -5.553621

  2. Atomic kind: S                                     Number of atoms:     200

     Orbital Basis Set                                           TZVP-MOLOPT-GTH

       Number of orbital shell sets:                                           1
       Number of orbital shells:                                               7
       Number of primitive Cartesian functions:                                6
       Number of Cartesian basis functions:                                   18
       Number of spherical basis functions:                                   17
       Norm type:                                                              2

       Normalised Cartesian orbitals:

                        Set   Shell   Orbital            Exponent    Coefficient

                          1       1    2s                3.817591       0.157264
                                                         2.362752      -0.510082
                                                         0.861004      -0.067545
                                                         0.417525       0.341507
                                                         0.181514       0.065073
                                                         0.070571       0.000166

                          1       2    3s                3.817591      -0.204385
                                                         2.362752       0.558740
                                                         0.861004       0.301625
                                                         0.417525      -0.627222
                                                         0.181514       0.190853
                                                         0.070571       0.080605

                          1       3    4s                3.817591      -1.028748
                                                         2.362752       1.936036
                                                         0.861004       0.140522
                                                         0.417525      -0.138514
                                                         0.181514       0.081374
                                                         0.070571      -0.058475

                          1       4    3px               3.817591      -0.172386
                                                         2.362752      -0.175607
                                                         0.861004       0.224215
                                                         0.417525       0.286358
                                                         0.181514       0.049699
                                                         0.070571       0.001588
                          1       4    3py               3.817591      -0.172386
                                                         2.362752      -0.175607
                                                         0.861004       0.224215
                                                         0.417525       0.286358
                                                         0.181514       0.049699
                                                         0.070571       0.001588
                          1       4    3pz               3.817591      -0.172386
                                                         2.362752      -0.175607
                                                         0.861004       0.224215
                                                         0.417525       0.286358
                                                         0.181514       0.049699
                                                         0.070571       0.001588

                          1       5    4px               3.817591       0.011373
                                                         2.362752       0.235342
                                                         0.861004      -0.175793
                                                         0.417525      -0.223923
                                                         0.181514       0.115877
                                                         0.070571       0.033489
                          1       5    4py               3.817591       0.011373
                                                         2.362752       0.235342
                                                         0.861004      -0.175793
                                                         0.417525      -0.223923
                                                         0.181514       0.115877
                                                         0.070571       0.033489
                          1       5    4pz               3.817591       0.011373
                                                         2.362752       0.235342
                                                         0.861004      -0.175793
                                                         0.417525      -0.223923
                                                         0.181514       0.115877
                                                         0.070571       0.033489

                          1       6    5px               3.817591      -0.999910
                                                         2.362752       1.827963
                                                         0.861004      -1.566915
                                                         0.417525       0.819066
                                                         0.181514       0.069667
                                                         0.070571      -0.035715
                          1       6    5py               3.817591      -0.999910
                                                         2.362752       1.827963
                                                         0.861004      -1.566915
                                                         0.417525       0.819066
                                                         0.181514       0.069667
                                                         0.070571      -0.035715
                          1       6    5pz               3.817591      -0.999910
                                                         2.362752       1.827963
                                                         0.861004      -1.566915
                                                         0.417525       0.819066
                                                         0.181514       0.069667
                                                         0.070571      -0.035715

                          1       7    4dx2              3.817591       0.133631
                                                         2.362752       0.806297
                                                         0.861004       0.453606
                                                         0.417525       0.175089
                                                         0.181514       0.017666
                                                         0.070571      -0.000330
                          1       7    4dxy              3.817591       0.231456
                                                         2.362752       1.396548
                                                         0.861004       0.785669
                                                         0.417525       0.303263
                                                         0.181514       0.030598
                                                         0.070571      -0.000571
                          1       7    4dxz              3.817591       0.231456
                                                         2.362752       1.396548
                                                         0.861004       0.785669
                                                         0.417525       0.303263
                                                         0.181514       0.030598
                                                         0.070571      -0.000571
                          1       7    4dy2              3.817591       0.133631
                                                         2.362752       0.806297
                                                         0.861004       0.453606
                                                         0.417525       0.175089
                                                         0.181514       0.017666
                                                         0.070571      -0.000330
                          1       7    4dyz              3.817591       0.231456
                                                         2.362752       1.396548
                                                         0.861004       0.785669
                                                         0.417525       0.303263
                                                         0.181514       0.030598
                                                         0.070571      -0.000571
                          1       7    4dz2              3.817591       0.133631
                                                         2.362752       0.806297
                                                         0.861004       0.453606
                                                         0.417525       0.175089
                                                         0.181514       0.017666
                                                         0.070571      -0.000330

     RI Auxiliary Basis Set                                            RI-conv-2

       Number of orbital shell sets:                                          20
       Number of orbital shells:                                              20
       Number of primitive Cartesian functions:                               20
       Number of Cartesian basis functions:                                  114
       Number of spherical basis functions:                                   86
       Norm type:                                                              2

       Normalised Cartesian orbitals:

                        Set   Shell   Orbital            Exponent    Coefficient

                          1       1    1s                0.197811       0.211396

                          2       1    1px               0.200000       0.190646
                          2       1    1py               0.200000       0.190646
                          2       1    1pz               0.200000       0.190646

                          3       1    1fx3              0.200000       0.039380
                          3       1    1fx2y             0.200000       0.088056
                          3       1    1fx2z             0.200000       0.088056
                          3       1    1fxy2             0.200000       0.088056
                          3       1    1fxyz             0.200000       0.152517
                          3       1    1fxz2             0.200000       0.088056
                          3       1    1fy3              0.200000       0.039380
                          3       1    1fy2z             0.200000       0.088056
                          3       1    1fyz2             0.200000       0.088056
                          3       1    1fz3              0.200000       0.039380

                          4       1    1dx2              0.242242       0.137672
                          4       1    1dxy              0.242242       0.238455
                          4       1    1dxz              0.242242       0.238455
                          4       1    1dy2              0.242242       0.137672
                          4       1    1dyz              0.242242       0.238455
                          4       1    1dz2              0.242242       0.137672

                          5       1    1px               0.384549       0.431648
                          5       1    1py               0.384549       0.431648
                          5       1    1pz               0.384549       0.431648

                          6       1    1s                0.389135       0.351144

                          7       1    1fx3              0.489200       0.294645
                          7       1    1fx2y             0.489200       0.658847
                          7       1    1fx2z             0.489200       0.658847
                          7       1    1fxy2             0.489200       0.658847
                          7       1    1fxyz             0.489200       1.141157
                          7       1    1fxz2             0.489200       0.658847
                          7       1    1fy3              0.489200       0.294645
                          7       1    1fy2z             0.489200       0.658847
                          7       1    1fyz2             0.489200       0.658847
                          7       1    1fz3              0.489200       0.294645

                          8       1    1dx2              0.603367       0.679871
                          8       1    1dxy              0.603367       1.177572
                          8       1    1dxz              0.603367       1.177572
                          8       1    1dy2              0.603367       0.679871
                          8       1    1dyz              0.603367       1.177572
                          8       1    1dz2              0.603367       0.679871

                          9       1    1px               0.631252       0.802035
                          9       1    1py               0.631252       0.802035
                          9       1    1pz               0.631252       0.802035

                         10       1    1gx4              0.863838       0.744089
                         10       1    1gx3y             0.863838       1.968673
                         10       1    1gx3z             0.863838       1.968673
                         10       1    1gx2y2            0.863838       2.541546
                         10       1    1gx2yz            0.863838       4.402087
                         10       1    1gx2z2            0.863838       2.541546
                         10       1    1gxy3             0.863838       1.968673
                         10       1    1gxy2z            0.863838       4.402087
                         10       1    1gxyz2            0.863838       4.402087
                         10       1    1gxz3             0.863838       1.968673
                         10       1    1gy4              0.863838       0.744089
                         10       1    1gy3z             0.863838       1.968673
                         10       1    1gy2z2            0.863838       2.541546
                         10       1    1gyz3             0.863838       1.968673
                         10       1    1gz4              0.863838       0.744089

                         11       1    1s                0.936032       0.678232

                         12       1    1fx3              1.029010       1.569995
                         12       1    1fx2y             1.029010       3.510615
                         12       1    1fx2z             1.029010       3.510615
                         12       1    1fxy2             1.029010       3.510615
                         12       1    1fxyz             1.029010       6.080564
                         12       1    1fxz2             1.029010       3.510615
                         12       1    1fy3              1.029010       1.569995
                         12       1    1fy2z             1.029010       3.510615
                         12       1    1fyz2             1.029010       3.510615
                         12       1    1fz3              1.029010       1.569995

                         13       1    1dx2              1.115385       1.992520
                         13       1    1dxy              1.115385       3.451146
                         13       1    1dxz              1.115385       3.451146
                         13       1    1dy2              1.115385       1.992520
                         13       1    1dyz              1.115385       3.451146
                         13       1    1dz2              1.115385       1.992520

                         14       1    1px               1.173306       1.740620
                         14       1    1py               1.173306       1.740620
                         14       1    1pz               1.173306       1.740620

                         15       1    1fx3              1.815428       5.631930
                         15       1    1fx2y             1.815428      12.593378
                         15       1    1fx2z             1.815428      12.593378
                         15       1    1fxy2             1.815428      12.593378
                         15       1    1fxyz             1.815428      21.812370
                         15       1    1fxz2             1.815428      12.593378
                         15       1    1fy3              1.815428       5.631930
                         15       1    1fy2z             1.815428      12.593378
                         15       1    1fyz2             1.815428      12.593378
                         15       1    1fz3              1.815428       5.631930

                         16       1    1s                2.064006       1.227279

                         17       1    1px               2.625789       4.764474
                         17       1    1py               2.625789       4.764474
                         17       1    1pz               2.625789       4.764474

                         18       1    1gx4              2.956947      21.940946
                         18       1    1gx3y             2.956947      58.050286
                         18       1    1gx3z             2.956947      58.050286
                         18       1    1gx2y2            2.956947      74.942597
                         18       1    1gx2yz            2.956947     129.804386
                         18       1    1gx2z2            2.956947      74.942597
                         18       1    1gxy3             2.956947      58.050286
                         18       1    1gxy2z            2.956947     129.804386
                         18       1    1gxyz2            2.956947     129.804386
                         18       1    1gxz3             2.956947      58.050286
                         18       1    1gy4              2.956947      21.940946
                         18       1    1gy3z             2.956947      58.050286
                         18       1    1gy2z2            2.956947      74.942597
                         18       1    1gyz3             2.956947      58.050286
                         18       1    1gz4              2.956947      21.940946

                         19       1    1dx2              3.238025      12.864706
                         19       1    1dxy              3.238025      22.282324
                         19       1    1dxz              3.238025      22.282324
                         19       1    1dy2              3.238025      12.864706
                         19       1    1dyz              3.238025      22.282324
                         19       1    1dz2              3.238025      12.864706

                         20       1    1s                4.685994       2.269924

       Atomic covalent radius [Angstrom]:                                  1.020

       Atomic van der Waals radius [Angstrom]:                             1.800

     GTH Potential information for                                   GTH-PADE-q6

       Description:                       Goedecker-Teter-Hutter pseudopotential
                                           Goedecker et al., PRB 54, 1703 (1996)
                                          Hartwigsen et al., PRB 58, 3641 (1998)
                                                      Krack, TCA 114, 145 (2005)

       Gaussian exponent of the core charge distribution:               2.834467
       Electronic configuration (s p d ...):                               2   4

       Parameters of the local part of the GTH pseudopotential:

                          rloc        C1          C2          C3          C4
                        0.420000   -6.554492

       Parameters of the non-local part of the GTH pseudopotential:

                   l      r(l)      h(i,j,l)

                   0    0.361757    7.905303   -1.731881
                                   -1.731881    4.471698
                   1    0.405285    3.866579


 MOLECULE KIND INFORMATION


 All atoms are their own molecule, skipping detailed information


 TOTAL NUMBERS AND MAXIMUM NUMBERS

  Total number of            - Atomic kinds:                                   2
                             - Atoms:                                        300
                             - Shell sets:                                   300
                             - Shells:                                      2500
                             - Primitive Cartesian functions:               1800
                             - Cartesian basis functions:                   7700
                             - Spherical basis functions:                   6900

  Maximum angular momentum of- Orbital basis functions:                        3
                             - Local part of the GTH pseudopotential:          2
                             - Non-local part of the GTH pseudopotential:      4


 MODULE QUICKSTEP: ATOMIC COORDINATES IN ANGSTROM

   Atom Kind Element         X             Y             Z       Z(eff)     Mass
      1    1 W    74      0.000000      0.000000      7.072797  14.0000 183.8400
      2    2 S    16      1.592973      0.919703      8.645595   6.0000  32.0650
      3    2 S    16      1.592973      0.919703      5.500000   6.0000  32.0650
      4    1 W    74      3.186000      0.000000      7.072797  14.0000 183.8400
      5    2 S    16      4.778973      0.919703      8.645595   6.0000  32.0650
      6    2 S    16      4.778973      0.919703      5.500000   6.0000  32.0650
      7    1 W    74      6.372000      0.000000      7.072797  14.0000 183.8400
      8    2 S    16      7.964973      0.919703      8.645595   6.0000  32.0650
      9    2 S    16      7.964973      0.919703      5.500000   6.0000  32.0650
     10    1 W    74      9.558000      0.000000      7.072797  14.0000 183.8400
     11    2 S    16     11.150973      0.919703      8.645595   6.0000  32.0650
     12    2 S    16     11.150973      0.919703      5.500000   6.0000  32.0650
     13    1 W    74     12.744000      0.000000      7.072797  14.0000 183.8400
     14    2 S    16     14.336973      0.919703      8.645595   6.0000  32.0650
     15    2 S    16     14.336973      0.919703      5.500000   6.0000  32.0650
     16    1 W    74     15.930000      0.000000      7.072797  14.0000 183.8400
     17    2 S    16     17.522973      0.919703      8.645595   6.0000  32.0650
     18    2 S    16     17.522973      0.919703      5.500000   6.0000  32.0650
     19    1 W    74     19.116000      0.000000      7.072797  14.0000 183.8400
     20    2 S    16     20.708973      0.919703      8.645595   6.0000  32.0650
     21    2 S    16     20.708973      0.919703      5.500000   6.0000  32.0650
     22    1 W    74     22.302000      0.000000      7.072797  14.0000 183.8400
     23    2 S    16     23.894973      0.919703      8.645595   6.0000  32.0650
     24    2 S    16     23.894973      0.919703      5.500000   6.0000  32.0650
     25    1 W    74     25.488000      0.000000      7.072797  14.0000 183.8400
     26    2 S    16     27.080973      0.919703      8.645595   6.0000  32.0650
     27    2 S    16     27.080973      0.919703      5.500000   6.0000  32.0650
     28    1 W    74     28.674000      0.000000      7.072797  14.0000 183.8400
     29    2 S    16     30.266973      0.919703      8.645595   6.0000  32.0650
     30    2 S    16     30.266973      0.919703      5.500000   6.0000  32.0650
     31    1 W    74     -1.593000      2.759000      7.072797  14.0000 183.8400
     32    2 S    16     -0.000027      3.678703      8.645595   6.0000  32.0650
     33    2 S    16     -0.000027      3.678703      5.500000   6.0000  32.0650
     34    1 W    74      1.593000      2.759000      7.072797  14.0000 183.8400
     35    2 S    16      3.185973      3.678703      8.645595   6.0000  32.0650
     36    2 S    16      3.185973      3.678703      5.500000   6.0000  32.0650
     37    1 W    74      4.779000      2.759000      7.072797  14.0000 183.8400
     38    2 S    16      6.371973      3.678703      8.645595   6.0000  32.0650
     39    2 S    16      6.371973      3.678703      5.500000   6.0000  32.0650
     40    1 W    74      7.965000      2.759000      7.072797  14.0000 183.8400
     41    2 S    16      9.557973      3.678703      8.645595   6.0000  32.0650
     42    2 S    16      9.557973      3.678703      5.500000   6.0000  32.0650
     43    1 W    74     11.151000      2.759000      7.072797  14.0000 183.8400
     44    2 S    16     12.743973      3.678703      8.645595   6.0000  32.0650
     45    2 S    16     12.743973      3.678703      5.500000   6.0000  32.0650
     46    1 W    74     14.337000      2.759000      7.072797  14.0000 183.8400
     47    2 S    16     15.929973      3.678703      8.645595   6.0000  32.0650
     48    2 S    16     15.929973      3.678703      5.500000   6.0000  32.0650
     49    1 W    74     17.523000      2.759000      7.072797  14.0000 183.8400
     50    2 S    16     19.115973      3.678703      8.645595   6.0000  32.0650
     51    2 S    16     19.115973      3.678703      5.500000   6.0000  32.0650
     52    1 W    74     20.709000      2.759000      7.072797  14.0000 183.8400
     53    2 S    16     22.301973      3.678703      8.645595   6.0000  32.0650
     54    2 S    16     22.301973      3.678703      5.500000   6.0000  32.0650
     55    1 W    74     23.895000      2.759000      7.072797  14.0000 183.8400
     56    2 S    16     25.487973      3.678703      8.645595   6.0000  32.0650
     57    2 S    16     25.487973      3.678703      5.500000   6.0000  32.0650
     58    1 W    74     27.081000      2.759000      7.072797  14.0000 183.8400
     59    2 S    16     28.673973      3.678703      8.645595   6.0000  32.0650
     60    2 S    16     28.673973      3.678703      5.500000   6.0000  32.0650
     61    1 W    74     -3.186000      5.518000      7.072797  14.0000 183.8400
[...]
 average stack size                                     1.0       2.7       0.0
 marketing flops                     6.636834E+12
 -------------------------------------------------------------------------------
 # multiplications                             55
 max memory usage/rank             869.003264E+06
 # max total images/rank                        5
 # max 3D layers                                1
 # MPI messages exchanged                37065600
 MPI messages size (bytes):
  total size                         2.966439E+12
  min size                           0.000000E+00
  max size                         238.032000E+03
  average size                      80.032117E+03
 MPI breakdown and total messages size (bytes):
             size <=      128              281520                        0
       128 < size <=     8192               22080                148267200
      8192 < size <=    32768            13223160             308753052480
     32768 < size <=   131072             8816755             486421309408
    131072 < size <=  4194304            14722085            2171115545312
   4194304 < size <= 16777216                   0                        0
  16777216 < size                               0                        0
 -------------------------------------------------------------------------------

 *** WARNING in dbcsr_mm.F:290 :: Using a non-square number of MPI ranks   ***
 *** might lead to poor performance. Used ranks: 2880 Suggested: 2916 5776 ***

 -------------------------------------------------------------------------------
 -                                                                             -
 -                      DBCSR MESSAGE PASSING PERFORMANCE                      -
 -                                                                             -
 -------------------------------------------------------------------------------
 ROUTINE             CALLS      AVE VOLUME [Bytes]
 MP_Bcast              219                     12.
 MP_Allreduce          835                     18.
 MP_Alltoall        100487               20636581.
 MP_ISend            26400                  43573.
 MP_IRecv            26400                  43271.
 -------------------------------------------------------------------------------

 -------------------------------------------------------------------------------
 -                                                                             -
 -                                DBM STATISTICS                               -
 -                                                                             -
 -------------------------------------------------------------------------------
    M  x    N  x    K                                          COUNT     PERCENT
    ?  x  ???  x   ??                                   194905629512       5.74%
   ??  x    ?  x >999                                    27236046692       0.80%
   ??  x   ??  x >999                                    14204722783       0.42%
    ?  x   ??  x >999                                    27048822131       0.80%
    ?  x >999  x    ?                                    56907788524       1.67%
    ?  x    ?  x    ?                                  1117532168249      32.88%
    ?  x  ???  x    ?                                   357317324138      10.51%
    ?  x   ??  x  ???                                   138138677845       4.06%
    ?  x >999  x   ??                                    30750634812       0.90%
    ?  x    ?  x >999                                    51834458626       1.53%
  ???  x   ??  x   ??                                   240242968212       7.07%
   ??  x   ??  x   ??                                    72509684634       2.13%
   ??  x   ??  x  ???                                   347291406538      10.22%
    ?  x    ?  x  ???                                   261391708545       7.69%
   ??  x    ?  x  ???                                   141079528095       4.15%
   ??  x  ???  x   ??                                    97452892424       2.87%
   ??  x >999  x    ?                                    28453919518       0.84%
   ??  x  ???  x    ?                                   178659224914       5.26%
   ??  x >999  x   ??                                    15375343704       0.45%
 -------------------------------------------------------------------------------

 -------------------------------------------------------------------------------
 -                                                                             -
 -                                GRID STATISTICS                              -
 -                                                                             -
 -------------------------------------------------------------------------------
 LP    KERNEL             BACKEND                              COUNT     PERCENT
 4     collocate general  REF                               31071600      22.21%
 4     integrate general  REF                               31071600      22.21%
 5     collocate general  REF                               30034800      21.47%
 5     integrate general  REF                               30034800      21.47%
 6     collocate general  REF                                7543800       5.39%
 6     integrate general  REF                                7543800       5.39%
 0     collocate general  REF                                1728000       1.24%
 0     integrate general  REF                                 864000       0.62%
 -------------------------------------------------------------------------------

 MEMORY| Estimated peak process memory [MiB]                                7428

 -------------------------------------------------------------------------------
 ----                             MULTIGRID INFO                            ----
 -------------------------------------------------------------------------------
 count for grid        1:       79622880          cutoff [a.u.]          250.00
 count for grid        2:       39113600          cutoff [a.u.]           83.33
 count for grid        3:       15144540          cutoff [a.u.]           27.78
 count for grid        4:        4254280          cutoff [a.u.]            9.26
 total gridlevel count  :      138135300

 -------------------------------------------------------------------------------
 -                                                                             -
 -                         MESSAGE PASSING PERFORMANCE                         -
 -                                                                             -
 -------------------------------------------------------------------------------

 ROUTINE             CALLS      AVE VOLUME [Bytes]
 MP_Group             5945
 MP_Bcast             8024                 729639.
 MP_Allreduce        12163                  20826.
 MP_Sync              9364
 MP_Alltoall          4799
 MP_SendRecv        466398                  11136.
 MP_ISendRecv       466398                  11136.
 MP_Wait            483257
 MP_comm_split        3471
 MP_ISend           868787                 170698.
 MP_IRecv           925803                 174863.
 -------------------------------------------------------------------------------


 -------------------------------------------------------------------------------
 -                                                                             -
 -                           R E F E R E N C E S                               -
 -                                                                             -
 -------------------------------------------------------------------------------
 
 CP2K version 2023.1 (Development Version), the CP2K developers group (2023).
 CP2K is freely available from https://www.cp2k.org/ .

 Kuehne,Thomas D.; Iannuzzi,Marcella; Del Ben,Mauro;
 Rybkin,Vladimir V.; Seewald,Patrick; Stein,Frederick; Laino,Teodoro;
 Khaliullin,Rustam Z.; Schuett,Ole; Schiffmann,Florian; Golze,Dorothea;
 Wilhelm,Jan; Chulkov,Sergey; Bani-Hashemian,Mohammad Hossein;
 Weber,Valery; Borstnik,Urban; Taillefumier,Mathieu;
 Jakobovits,Alice Shoshana; Lazzaro,Alfio; Pabst,Hans; Mueller,Tiziano;
 Schade,Robert; Guidon,Manuel; Andermatt,Samuel; Holmberg,Nico;
 Schenter,Gregory K.; Hehn,Anna; Bussy,Augustin; Belleflamme,Fabian;
 Tabacchi,Gloria; Gloess,Andreas; Lass,Michael; Bethune,Iain;
 Mundy,Christopher J.; Plessl,Christian; Watkins,Matt;
 VandeVondele,Joost; Krack,Matthias; Hutter,Juerg. 
 The Journal of Chemical Physics, 152 (19), (2020). 
 CP2K: An electronic structure and molecular dynamics software package -
 Quickstep: Efficient and accurate electronic structure calculations.
 https://doi.org/10.1063/5.0007045

 Wilhelm, J; Golze, D; Talirz, L; Hutter, J; Pignedoli, CA. 
 JOURNAL OF PHYSICAL CHEMISTRY LETTERS, 9, 306-312 (2018). 
 Toward GW calculations on thousands of atoms.
 https://doi.org/10.1021/acs.jpclett.7b02740

 Wilhelm, J; Hutter, J. PHYSICAL REVIEW B, 95, 235123 (2017). 
 Periodic GW calculations in the Gaussian and plane-waves scheme.
 https://doi.org/10.1103/PhysRevB.95.235123

 Wilhelm, J; Del Ben, M; Hutter, J. 
 JOURNAL OF CHEMICAL THEORY AND COMPUTATION, 12, 3623-3635 (2016). 
 GW in the Gaussian and plane waves scheme with application to linear acenes.
 https://doi.org/10.1021/acs.jctc.6b00380

 Wilhelm, J; Seewald, P; Del Ben, M; Hutter, J. 
 JOURNAL OF CHEMICAL THEORY AND COMPUTATION, 12, 5851-5859 (2016). 
 Large-Scale Cubic-Scaling Random Phase Approximation Correlation.
 https://doi.org/10.1021/acs.jctc.6b00840

 Schuett, Ole; Messmer, Peter; Hutter, Juerg; VandeVondele, Joost. 
 Electronic Structure Calculations on Graphics Processing Units, John
 Wiley & Sons, Ltd, 173-190 (2016). 
 GPU-Accelerated Sparse Matrix-Matrix Multiplication for
 Linear Scaling Density Functional Theory.
 https://doi.org/10.1002/9781118670712.ch8

 Heinecke, A; Henry, G; Hutchinson, M; Pabst, H. 
 Proceedings of Intl. Supercomputing Conference, 981-991 (2016). 
 LIBXSMM: Accelerating Small Matrix Multiplications
 by Runtime Code Generation.
 https://doi.org/10.1109/SC.2016.83

 Del Ben, M; Schuett, O; Wentz, T; Messmer, P; Hutter, J;
 VandeVondele, J. 
 COMPUTER PHYSICS COMMUNICATIONS, 187, 120-129 (2015). 
 Enabling simulation at the fifth rung of DFT: Large scale RPA
 calculations with excellent time to solution.
 https://doi.org/10.1016/j.cpc.2014.10.021

 Borstnik, U; VandeVondele, J; Weber, V; Hutter, J. 
 PARALLEL COMPUTING, 40 (5-6), 47-58 (2014). 
 Sparse matrix multiplication: The distributed block-compressed sparse
 row library.
 https://doi.org/10.1016/j.parco.2014.03.012

 Hutter, J; Iannuzzi, M; Schiffmann, F; VandeVondele, J. 
 WIREs Comput Mol Sci., 4 (1), 15-25 (2014). 
 CP2K: atomistic simulations of condensed matter systems.
 https://doi.org/10.1002/wcms.1159

 Marek, A; Blum, V; Johanni, R; Havu, V; Lang, B; Auckenthaler, T;
 Heinecke, A; Bungartz, H; Lederer, H. 
 Journal of Physics: Condensed Matter, 26 (21), (2014). 
 The ELPA library: scalable parallel eigenvalue solutions for
 electronic structure
 theory and computational science.
 https://doi.org/10.1088/0953-8984/26/21/213201

 Del Ben, M; Hutter, J; VandeVondele, J. 
 JOURNAL OF CHEMICAL THEORY AND COMPUTATION, 9 (6), 2654-2671 (2013). 
 Electron Correlation in the Condensed Phase from a Resolution of
 Identity Approach Based on the Gaussian and Plane Waves Scheme.
 https://doi.org/10.1021/ct4002202

 Del Ben, M; Hutter, J; VandeVondele, J. 
 JOURNAL OF CHEMICAL THEORY AND COMPUTATION, 8 (11), 4177-4188 (2012). 
 Second-Order Moller-Plesset Perturbation Theory in the Condensed Phase:
 An Efficient and Massively Parallel Gaussian and Plane Waves Approach.
 https://doi.org/10.1021/ct300531w

 VandeVondele, J; Hutter, J. 
 JOURNAL OF CHEMICAL PHYSICS, 127 (11), 114105 (2007). 
 Gaussian basis sets for accurate calculations on molecular systems in
 gas and condensed phases.
 https://doi.org/10.1063/1.2770708

 Krack, M. 
 THEORETICAL CHEMISTRY ACCOUNTS, 114 (1-3), 145-152 (2005). 
 Pseudopotentials for H to Kr optimized for gradient-corrected
 exchange-correlation functionals.
 https://doi.org/10.1007/s00214-005-0655-y

 VandeVondele, J; Krack, M; Mohamed, F; Parrinello, M; Chassaing, T;
 Hutter, J. COMPUTER PHYSICS COMMUNICATIONS, 167 (2), 103-128 (2005). 
 QUICKSTEP: Fast and accurate density functional calculations using a
 mixed Gaussian and plane waves approach.
 https://doi.org/10.1016/j.cpc.2004.12.014

 Frigo, M; Johnson, SG. 
 PROCEEDINGS OF THE IEEE, 93 (2), 216-231 (2005). 
 The design and implementation of FFTW3.
 https://doi.org/10.1109/JPROC.2004.840301

 Hartwigsen, C; Goedecker, S; Hutter, J. 
 PHYSICAL REVIEW B, 58 (7), 3641-3662 (1998). 
 Relativistic separable dual-space Gaussian pseudopotentials from H to Rn.
 https://doi.org/10.1103/PhysRevB.58.3641

 Lippert, G; Hutter, J; Parrinello, M. 
 MOLECULAR PHYSICS, 92 (3), 477-487 (1997). 
 A hybrid Gaussian and plane wave density functional scheme.
 https://doi.org/10.1080/002689797170220

 Goedecker, S; Teter, M; Hutter, J. 
 PHYSICAL REVIEW B, 54 (3), 1703-1710 (1996). 
 Separable dual-space Gaussian pseudopotentials.
 https://doi.org/10.1103/PhysRevB.54.1703


 -------------------------------------------------------------------------------
 -                                                                             -
 -                                T I M I N G                                  -
 -                                                                             -
 -------------------------------------------------------------------------------
 SUBROUTINE                       CALLS  ASD         SELF TIME        TOTAL TIME
                                MAXIMUM       AVERAGE  MAXIMUM  AVERAGE  MAXIMUM
 CP2K                                 1  1.0     0.01     0.23 17456.80 17456.91
 qs_energies                          1  2.0     0.00     0.01 17456.09 17456.20
 mp2_main                             1  3.0     0.00     0.01 17344.87 17344.98
 mp2_gpw_main                         1  4.0     0.00     0.01 17343.32 17343.44
 rpa_ri_compute_en                    1  5.0     0.00     0.00 15919.38 15919.49
 rpa_num_int                          1  6.0     0.00     0.01 15590.03 15590.14
 rpa_num_int_RPA_matrix_operati      10  7.0     0.00     0.00  8552.88  8552.93
 invert_eps_compute_W_and_Erpa_      10  8.0     0.00     0.00  8552.85  8552.91
 compute_Q_kp_RPA                   260  9.0     0.22     0.31  6466.73  6469.25
 cp_cfm_power                       312  9.7     0.45     0.70  6204.04  6207.22
 dbt_total                         1907  9.8     0.01     0.02  6156.08  6156.13
 dbt_contract                       765 11.0     0.05     0.07  5705.86  5708.54
 dbt_tas_total                     1206 13.4    15.84    20.62  5652.64  5652.69
 dbt_tas_multiply                  1065 12.8     0.00     0.00  5649.31  5649.35
 cp_cfm_heevd                       441 10.2  5621.67  5625.25  5621.67  5625.25
 dbt_tas_dbm                       1065 14.8     0.00     0.00  4316.65  4316.68
 parallel_gemm_cfm                 4194 10.2     0.01     0.01  3977.73  3989.47
 parallel_gemm_cfm_cosma           4194 11.2  3977.72  3989.45  3977.72  3989.45
 dbm_multiply                      1065 16.8  2845.39  3875.39  2845.39  3875.39
 compute_QP_energies                  1  7.0     0.00     0.01  3732.02  3732.05
 compute_self_energy_cubic_gw_k       1  8.0     0.08     0.10  3731.79  3731.83
 compute_mat_P_omega                  1  7.0     0.00     0.01  3301.63  3301.65
 compute_mat_P_omega_contract        10  8.0     2.14     2.64  3283.64  3283.67
 dbt_tas_mm_2                       289 15.0     0.00     0.00  2975.41  2975.43
 mp_sync                           9364 12.7  1752.55  2353.73  1752.55  2353.73
 compute_mat_P_omega_calc_P_t        90  9.0     0.00     0.00  2348.26  2348.28
 compute_Wc_real_space_tau_GW       260  9.0     0.00     0.00  1688.68  1688.91
 contract_to_self_energy            198  9.0     0.00     0.03  1560.56  1561.41
 mp2_ri_gpw_compute_in                1  5.0     0.00     0.04  1423.91  1423.93
 get_2c_integrals                     1  6.0     0.00     0.02  1391.63  1391.64
 tensor_operation_3c_W               99  9.0     0.00     0.00  1324.55  1325.23
 inversion_of_M_and_mult_with_c       1  7.0     0.00     0.00  1174.37  1174.39
 compute_Wc_real_space_tau_GW_3     260 10.0     0.00     0.00  1150.98  1156.63
 mp_waitall_2                      5496 16.6   733.11   825.01   733.11   825.01
 trafo_to_mo_and_kpoints             21  9.0     0.24     0.27   801.01   801.02
 dbt_tas_mm_3N                      198 16.5     0.00     0.00   602.56   779.38
 dbm_redistribute                  2094 15.5   446.58   582.10   446.58   582.10
 compute_Wc_real_space_tau_GW_2     260 10.0     0.03     0.05   524.71   526.60
 cp_cfm_cholesky_invert             260 11.0   519.67   520.93   519.67   520.93
 dbt_tas_communicate_buffer        1955 17.3     0.42     0.71   483.27   501.81
 dbt_tas_replicate                  928 15.0    22.78    70.07   487.00   500.85
 mp_isend_dv                     834576 16.7    65.36   470.55    65.36   470.55
 compute_mat_P_omega_calc_M_occ      90  9.0     2.16     2.66   469.60   469.60
 dbt_tas_replicate_communicate_     717 16.3     0.09     0.17   444.30   456.99
 convert_to_new_pgrid              3195 14.8    40.35    98.33   350.22   447.46
 dbt_copy                           949 10.8     0.09     0.11   361.25   405.23
 dbt_reshape                        929 11.8    32.58    36.74   359.27   403.15
 dbt_communicate_buffer             929 12.8     0.25     0.29   316.32   358.41
 get_bandstruc_and_k_dependent_       1  6.0     0.00     0.00   329.35   329.36
 create_kp_and_calc_kp_orbitals       3  7.0     0.00     0.01   329.35   329.36
 cp_cfm_cholesky_decompose          389  9.7   305.40   305.87   305.40   305.87
 cholesky_decomp_Q                  260  9.0     0.29     0.41   303.13   305.46
 copy_dbcsr_to_fm                  3886 10.4     0.06     0.07   265.84   296.76
 cp_cfm_geeig                       129  8.0     0.00     0.00   281.74   282.41
 dbt_tas_mm_3T                      396 16.5     0.00     0.00   224.56   247.88
 mp_alltoall_d11v                 46509 12.9   203.96   235.63   203.96   235.63
 real_space_to_kpoint_transform      37  9.8     1.92     3.66   227.00   227.07
 dbcsr_new_transposed              7502 10.8     0.31     0.52   224.47   225.30
 dbcsr_redistribute                7448 11.9     1.20     2.39   224.08   224.98
 compute_mat_P_omega_calc_M_vir      90  9.0     0.00     0.00   221.80   221.80
 mp_alltoall_i22                  15467 12.6   146.09   210.71   146.09   210.71
 compute_V_by_lattice_sum             1  7.0     0.00     0.00   204.62   204.64
 build_2c_coulomb_matrix_kp           2  8.0     0.00     0.00    99.08   201.52
 lattice_sum                          2  9.0     3.15     6.74    99.08   201.52
 dbcsr_desymmetrize_deep           3946 11.4     0.34     0.54   169.29   199.68
 compute_v_transl                 13312 10.0    95.21   193.52    95.85   194.98
 -------------------------------------------------------------------------------

 The number of warnings for this run is : 3
 
 -------------------------------------------------------------------------------
  **** **** ******  **  PROGRAM ENDED AT                 2023-06-02 23:04:12.344
 ***** ** ***  *** **   PROGRAM RAN ON                                  n2cn0201
 **    ****   ******    PROGRAM RAN BY                                  eprop2d1
 ***** **    ** ** **   PROGRAM PROCESS ID                               2287005
  **** **  *******  **  PROGRAM STOPPED IN /scratch/hpc-prf-eprop2d/eprop2d1_Jan
                                           /02_MoS2_MoSe2_WS2_WSe2/3_WS2/10x10_w
                                           ith_PBE/16_reg_RI_1e-2_TZVP_biggest_R
                                           I
